 -0.88888888888888884          0.0000000000000000     
 -0.87888888888888883          0.0000000000000000     
 -0.86888888888888882          0.0000000000000000     
 -0.85888888888888881          0.0000000000000000     
 -0.84888888888888880          0.0000000000000000     
 -0.83888888888888880         -2.1199336425365275E-036
 -0.82888888888888879         -1.2966011256836922E-033
 -0.81888888888888878         -8.2346272093230217E-034
 -0.80888888888888888         -6.5792107309520464E-032
 -0.79888888888888887         -6.7513177975918146E-031
 -0.78888888888888886         -2.7016085738394823E-030
 -0.77888888888888885         -5.0326528038929777E-030
 -0.76888888888888884         -1.0794103829815544E-030
 -0.75888888888888884          1.3380977572246406E-029
 -0.74888888888888883          8.1115211492616346E-030
 -0.73888888888888882         -1.0342549542738128E-028
 -0.72888888888888881         -3.6337273780844720E-028
 -0.71888888888888880         -4.8076329570732616E-028
 -0.70888888888888890          3.5952200940351506E-028
 -0.69888888888888889          2.8468809474370407E-027
 -0.68888888888888888          5.6010272124938693E-027
 -0.67888888888888888          3.3655406222153286E-027
 -0.66888888888888887         -1.0660903547725902E-026
 -0.65888888888888886         -3.4878212269839786E-026
 -0.64888888888888885         -4.6027932244890723E-026
 -0.63888888888888884          8.9291137695240890E-029
 -0.62888888888888883          1.3200331234401101E-025
 -0.61888888888888882          2.9094785162693659E-025
 -0.60888888888888881          2.7863856466948108E-025
 -0.59888888888888880         -1.7270387584369376E-025
 -0.58888888888888880         -1.1333409811357627E-024
 -0.57888888888888879         -2.0958495972957103E-024
 -0.56888888888888878         -1.8077463534410974E-024
 -0.55888888888888877          1.2231873078597783E-024
 -0.54888888888888876          7.3236734146842374E-024
 -0.53888888888888875          1.3834129054837859E-023
 -0.52888888888888885          1.4279123913751221E-023
 -0.51888888888888884          3.7720279047232040E-025
 -0.50888888888888884         -3.2108510020562365E-023
 -0.49888888888888883         -7.5123022055805218E-023
 -0.48888888888888882         -1.0239620915781539E-022
 -0.47888888888888881         -7.2740220359930838E-023
 -0.46888888888888886          5.1849173572091942E-023
 -0.45888888888888885          2.7397921788343719E-022
 -0.44888888888888884          5.2559275235624413E-022
 -0.43888888888888883          6.5126907355336025E-022
 -0.42888888888888882          4.3623159875476659E-022
 -0.41888888888888881         -3.0284892692898262E-022
 -0.40888888888888886         -1.5705250765799030E-021
 -0.39888888888888885         -3.0333740979633464E-021
 -0.38888888888888884         -3.9350718495316461E-021
 -0.37888888888888883         -3.1962416388794544E-021
 -0.36888888888888882          2.0971574340132581E-022
 -0.35888888888888881          6.6001601375754876E-021
 -0.34888888888888880          1.4799972065348457E-020
 -0.33888888888888880          2.1582237549585271E-020
 -0.32888888888888879          2.1834369308874823E-020
 -0.31888888888888878          9.9308275117240454E-021
 -0.30888888888888888         -1.7519682142698858E-020
 -0.29888888888888887         -5.8032723492384436E-020
 -0.28888888888888886         -1.0005432579069080E-019
 -0.27888888888888885         -1.2230255682448063E-019
 -0.26888888888888884         -9.7866387834048288E-020
 -0.25888888888888884         -4.3003843732796134E-021
 -0.24888888888888883          1.6139771043784801E-019
 -0.23888888888888882          3.6744732827495030E-019
 -0.22888888888888881          5.3945964005292898E-019
 -0.21888888888888880          5.6941758859897370E-019
 -0.20888888888888879          3.4803637197865711E-019
 -0.19888888888888878         -1.8118944123455410E-019
 -0.18888888888888877         -9.6094491998716690E-019
 -0.17888888888888888         -1.7801410682799499E-018
 -0.16888888888888887         -2.2891377660228705E-018
 -0.15888888888888886         -2.0941880460515261E-018
 -0.14888888888888885         -9.2462693480756681E-019
 -0.13888888888888884          1.1788189166596528E-018
 -0.12888888888888883          3.7467348504839464E-018
 -0.11888888888888882          5.9340845266145635E-018
 -0.10888888888888881          6.7922955790765992E-018
  -9.8888888888888804E-002     5.6990978174295806E-018
  -8.8888888888888795E-002     2.7533804771090690E-018
  -7.8888888888888786E-002    -1.1352754054318254E-018
  -6.8888888888888777E-002    -4.6709379586251564E-018
  -5.8888888888888768E-002    -7.0729120523918448E-018
  -4.8888888888888871E-002    -9.0427856057246141E-018
  -3.8888888888888862E-002    -1.3056888804833157E-017
  -2.8888888888888853E-002    -2.2223629906890680E-017
  -1.8888888888888844E-002    -3.7457993919292102E-017
  -8.8888888888888351E-003    -5.3787945418130208E-017
   1.1111111111111738E-003    -5.7878191419804870E-017
   1.1111111111111183E-002    -2.9623293190491996E-017
   2.1111111111111192E-002     4.9938928444133161E-017
   3.1111111111111200E-002     1.8466298955477990E-016
   4.1111111111111209E-002     3.4766978186799070E-016
   5.1111111111111218E-002     4.7261675011799542E-016
   6.1111111111111227E-002     4.6206176668314117E-016
   7.1111111111111125E-002     2.1961117191179831E-016
   8.1111111111111134E-002    -2.9716636883023910E-016
   9.1111111111111143E-002    -1.0198993486573390E-015
  0.10111111111111115         -1.7376551628863726E-015
  0.11111111111111116         -2.1217751812246596E-015
  0.12111111111111117         -1.8249210499146021E-015
  0.13111111111111118         -6.4086925717822150E-016
  0.14111111111111119          1.3280851926148829E-015
  0.15111111111111120          3.5797662170699088E-015
  0.16111111111111120          5.2804999549392953E-015
  0.17111111111111121          5.5318734991794804E-015
  0.18111111111111122          3.7872698073894255E-015
  0.19111111111111123          2.6728185531102531E-016
  0.20111111111111124         -3.8470605925866857E-015
  0.21111111111111125         -6.6505202664650809E-015
  0.22111111111111126         -6.2574787677307196E-015
  0.23111111111111127         -1.9003313344174684E-015
  0.24111111111111128          5.0331947099447726E-015
  0.25111111111111128          1.0616031640461703E-014
  0.26111111111111129          9.2058894958068488E-015
  0.27111111111111108         -4.3009669142954256E-015
  0.28111111111111109         -3.1172174487937437E-014
  0.29111111111111110         -6.5604944708089891E-014
  0.30111111111111111         -9.3211632260382232E-014
  0.31111111111111112         -9.2924237369510637E-014
  0.32111111111111112         -4.3292653533269498E-014
  0.33111111111111113          6.7374565941493575E-014
  0.34111111111111114          2.2960068091562591E-013
  0.35111111111111115          4.0450409406582455E-013
  0.36111111111111116          5.2400640250527264E-013
  0.37111111111111117          5.0372699718012615E-013
  0.38111111111111118          2.6950772342992924E-013
  0.39111111111111119         -2.0669582581969714E-013
  0.40111111111111120         -8.7164379446863505E-013
  0.41111111111111120         -1.5708120568169726E-012
  0.42111111111111121         -2.0585492945673911E-012
  0.43111111111111122         -2.0482810326322154E-012
  0.44111111111111123         -1.3015536998867150E-012
  0.45111111111111124          2.6058002327092322E-013
  0.46111111111111125          2.4557398215635518E-012
  0.47111111111111126          4.7896812384318199E-012
  0.48111111111111127          6.4972003471774897E-012
  0.49111111111111128          6.6978757609637007E-012
  0.50111111111111128          4.6583691765134105E-012
  0.51111111111111129          1.1205328386085928E-013
  0.52111111111111108         -6.4525229777345761E-012
  0.53111111111111109         -1.3646177937642889E-011
  0.54111111111111110         -1.9282294511091536E-011
  0.55111111111111111         -2.0790216770372183E-011
  0.56111111111111112         -1.5919900814287402E-011
  0.57111111111111112         -3.6160972220061760E-012
  0.58111111111111113          1.5158823848948622E-011
  0.59111111111111114          3.6936786962371571E-011
  0.60111111111111115          5.5868153853166902E-011
  0.61111111111111116          6.4640799657400549E-011
  0.62111111111111117          5.6195034736639116E-011
  0.63111111111111118          2.5993896271558903E-011
  0.64111111111111119         -2.5637512945930752E-011
  0.65111111111111120         -9.1768800891678382E-011
  0.66111111111111120         -1.5842191447568155E-010
  0.67111111111111121         -2.0598314720565725E-010
  0.68111111111111122         -2.1267058947227468E-010
  0.69111111111111123         -1.5974849221223053E-010
  0.70111111111111124         -3.7612239711659612E-011
  0.71111111111111125          1.4861958885781235E-010
  0.72111111111111126          3.7562589150219594E-010
  0.73111111111111127          6.0203542151526790E-010
  0.74111111111111128          7.7321277158759472E-010
  0.75111111111111128          8.3077350554461304E-010
  0.76111111111111129          7.2576150644820814E-010
  0.77111111111111130          4.3320391718282281E-010
  0.78111111111111109         -3.5239870049830202E-011
  0.79111111111111110         -6.2435795422643992E-010
  0.80111111111111111         -1.2379115510441352E-009
  0.81111111111111112         -1.7535369822851976E-009
  0.82111111111111112         -2.0515458221126437E-009
  0.83111111111111113         -2.0575359194197063E-009
  0.84111111111111114         -1.7971845123199159E-009
  0.85111111111111115         -1.4608134701887820E-009
  0.86111111111111116         -1.4756093014156590E-009
  0.87111111111111117         -2.5855233509730624E-009
  0.88111111111111118         -5.9426676912721632E-009
  0.89111111111111119         -1.3220385675083435E-008
  0.90111111111111120         -2.6766505456521372E-008
  0.91111111111111120         -4.9826024195454011E-008
  0.92111111111111121         -8.6876347893394268E-008
  0.93111111111111122         -1.4413301130389300E-007
  0.94111111111111123         -2.3030331419704453E-007
  0.95111111111111124         -3.5768388784163108E-007
  0.96111111111111125         -5.4372605973185273E-007
  0.97111111111111126         -8.1322218647983391E-007
  0.98111111111111127         -1.2012956176477019E-006
  0.99111111111111128         -1.7574271851117373E-006
   1.0011111111111113         -2.5508095404802589E-006
   1.0111111111111113         -3.6773583360627526E-006
   1.0211111111111113         -5.2688346841023304E-006
   1.0311111111111111         -7.5045695666631218E-006
   1.0411111111111111         -1.0626446055539418E-005
   1.0511111111111111         -1.4957874554966111E-005
   1.0611111111111111         -2.0927651348756626E-005
   1.0711111111111111         -2.9099799576215446E-005
   1.0811111111111111         -4.0210506995208561E-005
   1.0911111111111111         -5.5213477025972679E-005
   1.1011111111111112         -7.5335119618102908E-005
   1.1111111111111112         -1.0214096255367622E-004
   1.1211111111111114         -1.3761447917204350E-004
   1.1311111111111112         -1.8424959853291512E-004
   1.1411111111111114         -2.4515733821317554E-004
   1.1511111111111112         -3.2418689806945622E-004
   1.1611111111111110         -4.2606017086654902E-004
   1.1711111111111112         -5.5651803268119693E-004
   1.1811111111111110         -7.2247465141117573E-004
   1.1911111111111112         -9.3217537505552173E-004
   1.2011111111111110         -1.1953503126278520E-003
   1.2111111111111112         -1.5233560698106885E-003
   1.2211111111111110         -1.9292915239930153E-003
   1.2311111111111113         -2.4280757643282413E-003
   1.2411111111111111         -3.0364713165909052E-003
   1.2511111111111113         -3.7730336189270020E-003
   1.2611111111111111         -4.6579674817621708E-003
   1.2711111111111113         -5.7128705084323883E-003
   1.2811111111111111         -6.9603412412106991E-003
   1.2911111111111113         -8.4234336391091347E-003
   1.3011111111111111         -1.0124942287802696E-002
   1.3111111111111113         -1.2086509726941586E-002
   1.3211111111111111         -1.4327546581625938E-002
   1.3311111111111114         -1.6863970085978508E-002
   1.3411111111111111         -1.9706776365637779E-002
   1.3511111111111114         -2.2860473021864891E-002
   1.3611111111111112         -2.6321422308683395E-002
   1.3711111111111114         -3.0076134949922562E-002
   1.3811111111111112         -3.4099590033292770E-002
   1.3911111111111114         -3.8353666663169861E-002
   1.4011111111111112         -4.2785793542861938E-002
   1.4111111111111114         -4.7327898442745209E-002
   1.4211111111111112         -5.1895789802074432E-002
   1.4311111111111110         -5.6389052420854568E-002
   1.4411111111111112         -6.0691598802804947E-002
   1.4511111111111110         -6.4672909677028656E-002
   1.4611111111111112         -6.8190097808837891E-002
   1.4711111111111110         -7.1090757846832275E-002
   1.4811111111111113         -7.3216669261455536E-002
   1.4911111111111111         -7.4408262968063354E-002
   1.5011111111111113         -7.4509799480438232E-002
   1.5111111111111111         -7.3375120759010315E-002
   1.5211111111111113         -7.0873782038688660E-002
   1.5311111111111111         -6.6897347569465637E-002
   1.5411111111111113         -6.1365611851215363E-002
   1.5511111111111111         -5.4232411086559296E-002
   1.5611111111111113         -4.5490782707929611E-002
   1.5711111111111111         -3.5177163779735565E-002
   1.5811111111111114         -2.3374326527118683E-002
   1.5911111111111111         -1.0212818160653114E-002
   1.6011111111111114          4.1292998939752579E-003
   1.6111111111111112          1.9428530707955360E-002
   1.6211111111111114          3.5419899970293045E-002
   1.6311111111111112          5.1802735775709152E-002
   1.6411111111111114          6.8248182535171509E-002
   1.6511111111111112          8.4408186376094818E-002
   1.6611111111111114          9.9925674498081207E-002
   1.6711111111111112         0.11444557458162308     
   1.6811111111111110         0.12762618064880371     
   1.6911111111111112         0.13915045559406281     
   1.7011111111111110         0.14873674511909485     
   1.7111111111111112         0.15614850819110870     
   1.7211111111111110         0.16120252013206482     
   1.7311111111111113         0.16377529501914978     
   1.7411111111111111         0.16380728781223297     
   1.7511111111111113         0.16130483150482178     
   1.7611111111111111         0.15633966028690338     
   1.7711111111111113         0.14904610812664032     
   1.7811111111111111         0.13961604237556458     
   1.7911111111111113         0.12829180061817169     
   1.8011111111111111         0.11535743623971939     
   1.8111111111111113         0.10112879425287247     
   1.8211111111111111          8.5942678153514862E-002
   1.8311111111111114          7.0145785808563232E-002
   1.8411111111111111          5.4083783179521561E-002
   1.8511111111111114          3.8090936839580536E-002
   1.8611111111111112          2.2480726242065430E-002
   1.8711111111111114          7.5377319008111954E-003
   1.8811111111111112         -6.4889360219240189E-003
   1.8911111111111114         -1.9390502944588661E-002
   1.9011111111111112         -3.1001616269350052E-002
   1.9111111111111114         -4.1201669722795486E-002
   1.9211111111111112         -4.9914479255676270E-002
   1.9311111111111110         -5.7106472551822662E-002
   1.9411111111111112         -6.2783628702163696E-002
   1.9511111111111110         -6.6987387835979462E-002
   1.9611111111111112         -6.9789819419384003E-002
   1.9711111111111110         -7.1288295090198517E-002
   1.9811111111111113         -7.1599937975406647E-002
   1.9911111111111111         -7.0856042206287384E-002
   2.0011111111111113         -6.9196775555610657E-002
   2.0111111111111111         -6.6766224801540375E-002
   2.0211111111111113         -6.3707992434501648E-002
   2.0311111111111111         -6.0161404311656952E-002
   2.0411111111111113         -5.6258354336023331E-002
   2.0511111111111111         -5.2120793610811234E-002
   2.0611111111111113         -4.7858852893114090E-002
   2.0711111111111111         -4.3569616973400116E-002
   2.0811111111111114         -3.9336416870355606E-002
   2.0911111111111111         -3.5228669643402100E-002
   2.1011111111111114         -3.1302135437726974E-002
   2.1111111111111112         -2.7599543333053589E-002
   2.1211111111111114         -2.4151487275958061E-002
   2.1311111111111112         -2.0977539941668510E-002
   2.1411111111111114         -1.8087511882185936E-002
   2.1511111111111112         -1.5482815913856030E-002
   2.1611111111111114         -1.3157892972230911E-002
   2.1711111111111112         -1.1101638898253441E-002
   2.1811111111111114         -9.2987930402159691E-003
   2.1911111111111112         -7.7312397770583630E-003
   2.2011111111111110         -6.3791815191507339E-003
   2.2111111111111112         -5.2221515215933323E-003
   2.2211111111111110         -4.2398590594530106E-003
   2.2311111111111113         -3.4128529950976372E-003
   2.2411111111111111         -2.7230044361203909E-003
   2.2511111111111113         -2.1538103464990854E-003
   2.2611111111111111         -1.6905250959098339E-003
   2.2711111111111113         -1.3201353140175343E-003
   2.2811111111111111         -1.0312072699889541E-003
   2.2911111111111113         -8.1364478683099151E-004
   2.3011111111111111         -6.5840344177559018E-004
   2.3111111111111113         -5.5720331147313118E-004
   2.3211111111111111         -5.0227774772793055E-004
   2.3311111111111114         -4.8618327127769589E-004
   2.3411111111111111         -5.0168397137895226E-004
   2.3511111111111114         -5.4171500960364938E-004
   2.3611111111111112         -5.9942220104858279E-004
   2.3711111111111114         -6.6826713737100363E-004
   2.3811111111111112         -7.4217974906787276E-004
   2.3911111111111114         -8.1573351053521037E-004
   2.4011111111111112         -8.8431400945410132E-004
   2.4111111111111114         -9.4425026327371597E-004
   2.4211111111111112         -9.9288392812013626E-004
   2.4311111111111114         -1.0285623138770461E-003
   2.4411111111111112         -1.0505531681701541E-003
   2.4511111111111110         -1.0588917648419738E-003
   2.4611111111111112         -1.0541802039369941E-003
   2.4711111111111110         -1.0373645927757025E-003
   2.4811111111111113         -1.0095170000568032E-003
   2.4911111111111111         -9.7164674662053585E-004
   2.5011111111111113         -9.2456338461488485E-004
   2.5111111111111111         -8.6880556773394346E-004
   2.5211111111111113         -8.0464390339329839E-004
   2.5311111111111111         -7.3215458542108536E-004
   2.5411111111111113         -6.5135164186358452E-004
   2.5511111111111111         -5.6235812371596694E-004
   2.5611111111111113         -4.6558806207031012E-004
   2.5711111111111111         -3.6191035178489983E-004
   2.5811111111111114         -2.5276746600866318E-004
   2.5911111111111111         -1.4022688264958560E-004
   2.6011111111111114         -2.6952671760227531E-005
   2.6111111111111112          8.3904960774816573E-005
   2.6211111111111114          1.8889339116867632E-004
   2.6311111111111112          2.8449564706534147E-004
   2.6411111111111114          3.6739770439453423E-004
   2.6511111111111112          4.3475633719936013E-004
   2.6611111111111114          4.8444021376781166E-004
   2.6711111111111112          5.1522039575502276E-004
   2.6811111111111114          5.2689103176817298E-004
   2.6911111111111112          5.2030978258699179E-004
   2.7011111111111110          4.9735140055418015E-004
   2.7111111111111112          4.6077970182523131E-004
   2.7211111111111110          4.1404890362173319E-004
   2.7311111111111113          3.6105501931160688E-004
   2.7411111111111111          3.0586196226067841E-004
   2.7511111111111113          2.5242965784855187E-004
   2.7611111111111111          2.0436647173482925E-004
   2.7711111111111113          1.6472172865178436E-004
   2.7811111111111111          1.3582629617303610E-004
   2.7911111111111113          1.1918288510059938E-004
   2.8011111111111111          1.1540452396729961E-004
   2.8111111111111113          1.2420030543580651E-004
   2.8211111111111111          1.4440769155044109E-004
   2.8311111111111114          1.7407095583621413E-004
   2.8411111111111111          2.1056228433735669E-004
   2.8511111111111114          2.5073974393308163E-004
   2.8611111111111112          2.9113361961208284E-004
   2.8711111111111114          3.2815249869599938E-004
   2.8811111111111112          3.5830316483043134E-004
   2.8911111111111114          3.7841833545826375E-004
   2.9011111111111112          3.8588594179600477E-004
   2.9111111111111114          3.7886708742007613E-004
   2.9211111111111112          3.5648277844302356E-004
   2.9311111111111114          3.1894375570118427E-004
   2.9411111111111112          2.6759781758300960E-004
   2.9511111111111110          2.0487686560954899E-004
   2.9611111111111112          1.3413946726359427E-004
   2.9711111111111110          5.9419748140498996E-005
   2.9811111111111113         -1.4893714251229540E-005
   2.9911111111111111         -8.4418272308539599E-005
   3.0011111111111113         -1.4514310169033706E-004
   3.0111111111111111         -1.9376688578631729E-004
   3.0211111111111113         -2.2797386918682605E-004
   3.0311111111111111         -2.4661660427227616E-004
   3.0411111111111113         -2.4977873545140028E-004
   3.0511111111111111         -2.3870226868893951E-004
   3.0611111111111113         -2.1558196749538183E-004
   3.0711111111111111         -1.8325047858525068E-004
   3.0811111111111114         -1.4479702804237604E-004
   3.0911111111111111         -1.0317272972315550E-004
   3.1011111111111114         -6.0834445321233943E-005
   3.1111111111111112         -1.9467757738311775E-005
   3.1211111111111109          2.0186931578791700E-005
   3.1311111111111116          5.8397326938575134E-005
   3.1411111111111114          9.6395800937898457E-005
   3.1511111111111112          1.3624348503071815E-004
   3.1611111111111110          1.8062298477161676E-004
   3.1711111111111117          2.3258927103597671E-004
   3.1811111111111114          2.9531563632190228E-004
   3.1911111111111112          3.7187495036050677E-004
   3.2011111111111110          4.6509195817634463E-004
   3.2111111111111108          5.7748740073293447E-004
   3.2211111111111115          7.1131350705400109E-004
   3.2311111111111113          8.6865859339013696E-004
   3.2411111111111111          1.0515820467844605E-003
   3.2511111111111108          1.2622383655980229E-003
   3.2611111111111115          1.5029512578621507E-003
   3.2711111111111113          1.7762117786332965E-003
   3.2811111111111111          2.0845856051892042E-003
   3.2911111111111109          2.4305230472236872E-003
   3.3011111111111116          2.8160726651549339E-003
   3.3111111111111113          3.2425108365714550E-003
   3.3211111111111111          3.7099076434969902E-003
   3.3311111111111109          4.2166705243289471E-003
   3.3411111111111116          4.7591133043169975E-003
   3.3511111111111114          5.3311069495975971E-003
   3.3611111111111112          5.9238541871309280E-003
   3.3711111111111109          6.5258215181529522E-003
   3.3811111111111116          7.1228309534490108E-003
   3.3911111111111114          7.6983049511909485E-003
   3.4011111111111112          8.2336366176605225E-003
   3.4111111111111110          8.7086698040366173E-003
   3.4211111111111117          9.1022634878754616E-003
   3.4311111111111114          9.3929255381226540E-003
   3.4411111111111112          9.5594907179474831E-003
   3.4511111111111110          9.5818312838673592E-003
   3.4611111111111117          9.4415675848722458E-003
   3.4711111111111115          9.1227684170007706E-003
   3.4811111111111113          8.6126290261745453E-003
   3.4911111111111111          7.9021239653229713E-003
   3.5011111111111108          6.9866287522017956E-003
   3.5111111111111115          5.8664977550506592E-003
   3.5211111111111113          4.5475638471543789E-003
   3.5311111111111111          3.0415179207921028E-003
   3.5411111111111109          1.3661041157320142E-003
   3.5511111111111116         -4.5491580385714769E-004
   3.5611111111111113         -2.3920682724565268E-003
   3.5711111111111111         -4.4107572175562382E-003
   3.5811111111111109         -6.4721275120973587E-003
   3.5911111111111116         -8.5341725498437881E-003
   3.6011111111111114         -1.0553032159805298E-002
   3.6111111111111112         -1.2484428472816944E-002
   3.6211111111111109         -1.4285149052739143E-002
   3.6311111111111116         -1.5914501622319221E-002
   3.6411111111111114         -1.7335645854473114E-002
   3.6511111111111112         -1.8516732379794121E-002
   3.6611111111111110         -1.9431784749031067E-002
   3.6711111111111117         -2.0061310380697250E-002
   3.6811111111111114         -2.0392639562487602E-002
   3.6911111111111112         -2.0420031622052193E-002
   3.7011111111111110         -2.0144589245319366E-002
   3.7111111111111117         -1.9574023783206940E-002
   3.7211111111111115         -1.8722305074334145E-002
   3.7311111111111113         -1.7609225586056709E-002
   3.7411111111111111         -1.6259875148534775E-002
   3.7511111111111108         -1.4704047702252865E-002
   3.7611111111111115         -1.2975558638572693E-002
   3.7711111111111113         -1.1111483909189701E-002
   3.7811111111111111         -9.1512976214289665E-003
   3.7911111111111109         -7.1359178982675076E-003
   3.8011111111111116         -5.1066530868411064E-003
   3.8111111111111113         -3.1040741596370935E-003
   3.8211111111111111         -1.1668498627841473E-003
   3.8311111111111109          6.6938746022060513E-004
   3.8411111111111116          2.3730739485472441E-003
   3.8511111111111114          3.9175744168460369E-003
   3.8611111111111112          5.2818153053522110E-003
   3.8711111111111109          6.4506540074944496E-003
   3.8811111111111116          7.4149770662188530E-003
   3.8911111111111114          8.1715406849980354E-003
   3.9011111111111112          8.7225781753659248E-003
   3.9111111111111110          9.0752160176634789E-003
   3.9211111111111117          9.2407576739788055E-003
   3.9311111111111114          9.2338938266038895E-003
   3.9411111111111112          9.0719042345881462E-003
   3.9511111111111110          8.7739014998078346E-003
   3.9611111111111117          8.3601735532283783E-003
   3.9711111111111115          7.8516360372304916E-003
   3.9811111111111113          7.2693875990808010E-003
   3.9911111111111111          6.6343569196760654E-003
   4.0011111111111113          5.9670042246580124E-003
   4.0111111111111111          5.2870521321892738E-003
   4.0211111111111109          4.6132258139550686E-003
   4.0311111111111106          3.9629824459552765E-003
   4.0411111111111104          3.3522243611514568E-003
   4.0511111111111120          2.7950005605816841E-003
   4.0611111111111118          2.3031970486044884E-003
   4.0711111111111116          1.8862347351387143E-003
   4.0811111111111114          1.5507988864555955E-003
   4.0911111111111111          1.3006253866478801E-003
   4.1011111111111109          1.1363746598362923E-003
   4.1111111111111107          1.0556124616414309E-003
   4.1211111111111105          1.0529074352234602E-003
   4.1311111111111121          1.1200422886759043E-003
   4.1411111111111119          1.2463281163945794E-003
   4.1511111111111116          1.4190042857080698E-003
   4.1611111111111114          1.6237103845924139E-003
   4.1711111111111112          1.8450153293088078E-003
   4.1811111111111110          2.0669924560934305E-003
   4.1911111111111108          2.2738254629075527E-003
   4.2011111111111106          2.4504235479980707E-003
   4.2111111111111121          2.5830231606960297E-003
   4.2211111111111119          2.6597480755299330E-003
   4.2311111111111117          2.6710997335612774E-003
   4.2411111111111115          2.6103507261723280E-003
   4.2511111111111113          2.4738127831369638E-003
   4.2611111111111111          2.2609538864344358E-003
   4.2711111111111109          1.9743400625884533E-003
   4.2811111111111106          1.6193849733099341E-003
   4.2911111111111104          1.2038991553708911E-003
   4.3011111111111120          7.3744845576584339E-004
   4.3111111111111118          2.3054759367369115E-004
   4.3211111111111116         -3.0627049272879958E-004
   4.3311111111111114         -8.6345878662541509E-004
   4.3411111111111111         -1.4334833249449730E-003
   4.3511111111111109         -2.0118262618780136E-003
   4.3611111111111107         -2.5979264173656702E-003
   4.3711111111111105         -3.1960292253643274E-003
   4.3811111111111121         -3.8159305695444345E-003
   4.3911111111111119         -4.4736103154718876E-003
   4.4011111111111116         -5.1917643286287785E-003
   4.4111111111111114         -6.0002547688782215E-003
   4.4211111111111112         -6.9365110248327255E-003
   4.4311111111111110         -8.0459145829081535E-003
   4.4411111111111108         -9.3822069466114044E-003
   4.4511111111111106         -1.1007929220795631E-002
   4.4611111111111121         -1.2994925491511822E-002
   4.4711111111111119         -1.5424882061779499E-002
   4.4811111111111117         -1.8389906734228134E-002
   4.4911111111111115         -2.1993085741996765E-002
   4.5011111111111113         -2.6348993182182312E-002
   4.5111111111111111         -3.1584065407514572E-002
   4.5211111111111109         -3.7836775183677673E-002
   4.5311111111111106         -4.5257490128278732E-002
   4.5411111111111104         -5.4007939994335175E-002
   4.5511111111111120         -6.4260147511959076E-002