 -0.88888888888888884          2.8407965489948829E-036
 -0.87888888888888883          1.2942855781367249E-030
 -0.86888888888888882          2.1861278946988124E-027
 -0.85888888888888881          2.1532845876525891E-024
 -0.84888888888888880          6.8248687757039395E-024
 -0.83888888888888880          6.8204106071841734E-023
 -0.82888888888888879          4.2240694391940044E-022
 -0.81888888888888878          1.3818837711942183E-021
 -0.80888888888888888          2.5895464628888981E-021
 -0.79888888888888887          2.1407472623066786E-021
 -0.78888888888888886         -2.3905362183036945E-021
 -0.77888888888888885         -9.3903037555118552E-021
 -0.76888888888888884         -8.2363884165875155E-021
 -0.75888888888888884          1.6630151175887512E-020
 -0.74888888888888883          6.5140634797264319E-020
 -0.73888888888888882          9.5784820134301272E-020
 -0.72888888888888881          3.1705836110331819E-020
 -0.71888888888888880         -1.6464832345002827E-019
 -0.70888888888888890         -3.7183774447244035E-019
 -0.69888888888888889         -2.7010934083126147E-019
 -0.68888888888888888          4.4815399647325381E-019
 -0.67888888888888888          1.5924099467192026E-018
 -0.66888888888888887          2.0356209703457810E-018
 -0.65888888888888886         -2.6471643989249398E-020
 -0.64888888888888885         -5.5932579901018893E-018
 -0.63888888888888884         -1.2515558650921304E-017
 -0.62888888888888883         -1.4036174697144885E-017
 -0.61888888888888882         -8.0523980190142347E-019
 -0.60888888888888881          3.2097228275238042E-017
 -0.59888888888888880          7.5139842764675754E-017
 -0.58888888888888880          9.8011883010134501E-017
 -0.57888888888888879          5.6132582246966865E-017
 -0.56888888888888878         -8.4431019955002079E-017
 -0.55888888888888877         -3.0890357203144393E-016
 -0.54888888888888876         -5.2212063780820734E-016
 -0.53888888888888875         -5.5166377057989805E-016
 -0.52888888888888885         -2.0819425304377401E-016
 -0.51888888888888884          5.9954834303319656E-016
 -0.50888888888888884          1.7342837599980637E-015
 -0.49888888888888883          2.7540871821741262E-015
 -0.48888888888888882          2.9642261037507878E-015
 -0.47888888888888881          1.6355593171384964E-015
 -0.46888888888888886         -1.6390868917264554E-015
 -0.45888888888888885         -6.5538301849865817E-015
 -0.44888888888888884         -1.1817564816800873E-014
 -0.43888888888888883         -1.5158061166930387E-014
 -0.42888888888888882         -1.3714755141291685E-014
 -0.41888888888888881         -4.8541734495096290E-015
 -0.40888888888888886          1.2654588375717469E-014
 -0.39888888888888885          3.7282002707467524E-014
 -0.38888888888888884          6.3525980266085358E-014
 -0.37888888888888883          8.1365334391944599E-014
 -0.36888888888888882          7.7084233364877602E-014
 -0.35888888888888881          3.6220379045224030E-014
 -0.34888888888888880         -5.0900534058918173E-014
 -0.33888888888888880         -1.8139213275956273E-013
 -0.32888888888888879         -3.3150793308373006E-013
 -0.31888888888888878         -4.5118512333360006E-013
 -0.30888888888888888         -4.6614003889472455E-013
 -0.29888888888888887         -2.9233313361166913E-013
 -0.28888888888888886          1.3445939240491755E-013
 -0.27888888888888885          8.1610429135056672E-013
 -0.26888888888888884          1.6461462184688691E-012
 -0.25888888888888884          2.3783097886920235E-012
 -0.24888888888888883          2.6335194875520829E-012
 -0.23888888888888882          1.9691676674676861E-012
 -0.22888888888888881          2.3275941924186770E-014
 -0.21888888888888880         -3.2779495263979275E-012
 -0.20888888888888879         -7.4957713647183510E-012
 -0.19888888888888878         -1.1521974346839770E-011
 -0.18888888888888877         -1.3598671667891526E-011
 -0.17888888888888888         -1.1618238489330412E-011
 -0.16888888888888887         -3.7534693235474759E-012
 -0.15888888888888886          1.0637860384243858E-011
 -0.14888888888888885          3.0034214698604345E-011
 -0.13888888888888884          5.0042563842778165E-011
 -0.12888888888888883          6.3394685334561274E-011
 -0.11888888888888882          6.1045529742287385E-011
 -0.10888888888888881          3.4564458933905584E-011
  -9.8888888888888804E-002    -2.0377505238755589E-011
  -8.8888888888888795E-002    -1.0013281870335788E-010
  -7.8888888888888786E-002    -1.9002981133109387E-010
  -6.8888888888888777E-002    -2.6368124350639732E-010
  -5.8888888888888768E-002    -2.8609609126206692E-010
  -4.8888888888888871E-002    -2.2140862754316259E-010
  -3.8888888888888862E-002    -4.4824068068383127E-011
  -2.8888888888888853E-002     2.4325949588011042E-010
  -1.8888888888888844E-002     6.0468846596606340E-010
  -8.8888888888888351E-003     9.5748686756991219E-010
   1.1111111111111738E-003     1.1813166000962383E-009
   1.1111111111111183E-002     1.1379814868206495E-009
   2.1111111111111192E-002     7.0718336742103816E-010
   3.1111111111111200E-002    -1.6703467775602832E-010
   4.1111111111111209E-002    -1.4290418848261766E-009
   5.1111111111111218E-002    -2.8778666116835439E-009
   6.1111111111111227E-002    -4.1630121572211465E-009
   7.1111111111111125E-002    -4.8235153649045515E-009
   8.1111111111111134E-002    -4.3764831758608125E-009
   9.1111111111111143E-002    -2.4492299299794240E-009
  0.10111111111111115          1.0657837945515780E-009
  0.11111111111111116          5.8684044290657766E-009
  0.12111111111111117          1.1165388613676441E-008
  0.13111111111111118          1.5687305676692631E-008
  0.14111111111111119          1.7840980248706728E-008
  0.15111111111111120          1.6005754943648753E-008
  0.16111111111111120          8.9465235220131945E-009
  0.17111111111111121         -3.7229854754627922E-009
  0.18111111111111122         -2.1127535276832532E-008
  0.19111111111111123         -4.0887940144784807E-008
  0.20111111111111124         -5.9162292842529496E-008
  0.21111111111111125         -7.1047658423140092E-008
  0.22111111111111126         -7.1353049690969783E-008
  0.23111111111111127         -5.5667499054834479E-008
  0.24111111111111128         -2.1554859230832335E-008
  0.25111111111111128          3.0369978532007735E-008
  0.26111111111111129          9.5768413643781969E-008
  0.27111111111111108          1.6657926948937529E-007
  0.28111111111111109          2.3188799502804613E-007
  0.29111111111111110          2.7972444627266668E-007
  0.30111111111111111          2.9968092007948144E-007
  0.31111111111111112          2.8606808655240457E-007
  0.32111111111111112          2.4118727992572531E-007
  0.33111111111111113          1.7822814868395653E-007
  0.34111111111111114          1.2333597965152876E-007
  0.35111111111111115          1.1652883813439985E-007
  0.36111111111111116          2.1138470174264512E-007
  0.37111111111111117          4.7371372602356132E-007
  0.38111111111111118          9.7975021162710618E-007
  0.39111111111111119          1.8146530464946409E-006
  0.40111111111111120          3.0722771953151096E-006
  0.41111111111111120          4.8572451305517461E-006
  0.42111111111111121          7.2902048486866988E-006
  0.43111111111111122          1.0516997463128064E-005
  0.44111111111111123          1.4722158994118217E-005
  0.45111111111111124          2.0146895622019656E-005
  0.46111111111111125          2.7111391318612732E-005
  0.47111111111111126          3.6041143175680190E-005
  0.48111111111111127          4.7496869228780270E-005
  0.49111111111111128          6.2207538576330990E-005
  0.50111111111111128          8.1105965364258736E-005
  0.51111111111111129          1.0536628542467952E-004
  0.52111111111111108          1.3644264254253358E-004
  0.53111111111111109          1.7610774375498295E-004
  0.54111111111111110          2.2648987942375243E-004
  0.55111111111111111          2.9010648722760379E-004
  0.56111111111111112          3.6989158252254128E-004
  0.57111111111111112          4.6921439934521914E-004
  0.58111111111111113          5.9188622981309891E-004
  0.59111111111111114          7.4215239146724343E-004
  0.60111111111111115          9.2466658679768443E-004
  0.61111111111111116          1.1444449191913009E-003
  0.62111111111111117          1.4067963929846883E-003
  0.63111111111111118          1.7172289080917835E-003
  0.64111111111111119          2.0813255105167627E-003
  0.65111111111111120          2.5045899674296379E-003
  0.66111111111111120          2.9922567773610353E-003
  0.67111111111111121          3.5490612499415874E-003
  0.68111111111111122          4.1789682582020760E-003
  0.69111111111111123          4.8848562873899937E-003
  0.70111111111111124          5.6681577116250992E-003
  0.71111111111111125          6.5284618176519871E-003
  0.72111111111111126          7.4630905874073505E-003
  0.73111111111111127          8.4666600450873375E-003
  0.74111111111111128          9.5306551083922386E-003
  0.75111111111111128          1.0643037036061287E-002
  0.76111111111111129          1.1787924915552139E-002
  0.77111111111111130          1.2945376336574554E-002
  0.78111111111111109          1.4091302640736103E-002
  0.79111111111111110          1.5197550877928734E-002
  0.80111111111111111          1.6232173889875412E-002
  0.81111111111111112          1.7159909009933472E-002
  0.82111111111111112          1.7942870035767555E-002
  0.83111111111111113          1.8541445955634117E-002
  0.84111111111111114          1.8915409222245216E-002
  0.85111111111111115          1.9025193527340889E-002
  0.86111111111111116          1.8833316862583160E-002
  0.87111111111111117          1.8305897712707520E-002
  0.88111111111111118          1.7414217814803123E-002
  0.89111111111111119          1.6136258840560913E-002
  0.90111111111111120          1.4458155259490013E-002
  0.91111111111111120          1.2375478632748127E-002
  0.92111111111111121          9.8942872136831284E-003
  0.93111111111111122          7.0318747311830521E-003
  0.94111111111111123          3.8171459455043077E-003
  0.95111111111111124          2.9058940708637238E-004
  0.96111111111111125         -3.4961889032274485E-003
  0.97111111111111126         -7.4813701212406158E-003
  0.98111111111111127         -1.1594250798225403E-002
  0.99111111111111128         -1.5756947919726372E-002
   1.0011111111111113         -1.9886424764990807E-002
   1.0111111111111113         -2.3896759375929832E-002
   1.0211111111111113         -2.7701565995812416E-002
   1.0311111111111111         -3.1216487288475037E-002
   1.0411111111111111         -3.4361660480499268E-002
   1.0511111111111111         -3.7064075469970703E-002
   1.0611111111111111         -3.9259754121303558E-002
   1.0711111111111111         -4.0895663201808929E-002
   1.0811111111111111         -4.1931342333555222E-002
   1.0911111111111111         -4.2340140789747238E-002
   1.1011111111111112         -4.2110078036785126E-002
   1.1111111111111112         -4.1244253516197205E-002
   1.1211111111111114         -3.9760816842317581E-002
   1.1311111111111112         -3.7692472338676453E-002
   1.1411111111111114         -3.5085551440715790E-002
   1.1511111111111112         -3.1998679041862488E-002
   1.1611111111111110         -2.8501054272055626E-002
   1.1711111111111112         -2.4670451879501343E-002
   1.1811111111111110         -2.0590979605913162E-002
   1.1911111111111112         -1.6350703313946724E-002
   1.2011111111111110         -1.2039194814860821E-002
   1.2111111111111112         -7.7450927346944809E-003
   1.2211111111111110         -3.5537520889192820E-003
   1.2311111111111113          4.5496865641325712E-004
   1.2411111111111111          4.2087230831384659E-003
   1.2511111111111113          7.6444498263299465E-003
   1.2611111111111111          1.0709863156080246E-002
   1.2711111111111113          1.3364613056182861E-002
   1.2811111111111111          1.5581085346639156E-002
   1.2911111111111113          1.7344793304800987E-002
   1.3011111111111111          1.8654339015483856E-002
   1.3111111111111113          1.9520927220582962E-002
   1.3211111111111111          1.9967444241046906E-002
   1.3311111111111114          2.0027121528983116E-002
   1.3411111111111111          1.9741848111152649E-002
   1.3511111111111114          1.9160212948918343E-002
   1.3611111111111112          1.8335372209548950E-002
   1.3711111111111114          1.7322858795523643E-002
   1.3811111111111112          1.6178436577320099E-002
   1.3911111111111114          1.4956109225749969E-002
   1.4011111111111112          1.3706348836421967E-002
   1.4111111111111114          1.2474614195525646E-002
   1.4211111111111112          1.1300171725451946E-002
   1.4311111111111110          1.0215236805379391E-002
   1.4411111111111112          9.2444345355033875E-003
   1.4511111111111110          8.4045445546507835E-003
   1.4611111111111112          7.7045350335538387E-003
   1.4711111111111110          7.1458574384450912E-003
   1.4811111111111113          6.7229894921183586E-003
   1.4911111111111111          6.4242091029882431E-003
   1.5011111111111113          6.2325731851160526E-003
   1.5111111111111111          6.1270636506378651E-003
   1.5211111111111113          6.0838498175144196E-003
   1.5311111111111111          6.0775950551033020E-003
   1.5411111111111113          6.0827438719570637E-003
   1.5511111111111111          6.0747070237994194E-003
   1.5611111111111113          6.0308813117444515E-003
   1.5711111111111111          5.9314612299203873E-003
   1.5811111111111114          5.7600201107561588E-003
   1.5911111111111111          5.5038691498339176E-003
   1.6011111111111114          5.1542255096137524E-003
   1.6111111111111112          4.7062383964657784E-003
   1.6211111111111114          4.1589196771383286E-003
   1.6311111111111112          3.5150256007909775E-003
   1.6411111111111114          2.7809136081486940E-003
   1.6511111111111112          1.9663718994706869E-003
   1.6611111111111114          1.0844086064025760E-003
   1.6711111111111112          1.5096447896212339E-004
   1.6811111111111110         -8.1548257730901241E-004
   1.6911111111111112         -1.7944477731361985E-003
   1.7011111111111110         -2.7641083579510450E-003
   1.7111111111111112         -3.7020929157733917E-003
   1.7211111111111110         -4.5863469131290913E-003
   1.7311111111111113         -5.3960159420967102E-003
   1.7411111111111111         -6.1122733168303967E-003
   1.7511111111111113         -6.7190350964665413E-003
   1.7611111111111111         -7.2035123594105244E-003
   1.7711111111111113         -7.5565776787698269E-003
   1.7811111111111111         -7.7729527838528156E-003
   1.7911111111111113         -7.8512374311685562E-003
   1.8011111111111111         -7.7938139438629150E-003
   1.8111111111111113         -7.6066707260906696E-003
   1.8211111111111111         -7.2991591878235340E-003
   1.8311111111111114         -6.8837008439004421E-003
   1.8411111111111111         -6.3754278235137463E-003
   1.8511111111111114         -5.7917404919862747E-003
   1.8611111111111112         -5.1517486572265625E-003
   1.8711111111111114         -4.4755884446203709E-003
   1.8811111111111112         -3.7836178671568632E-003
   1.8911111111111114         -3.0955225229263306E-003
   1.9011111111111112         -2.4293910246342421E-003
   1.9111111111111114         -1.8008436309173703E-003
   1.9211111111111112         -1.2223010417073965E-003
   1.9311111111111110         -7.0247607072815299E-004
   1.9411111111111112         -2.4614844005554914E-004
   1.9511111111111110          1.4575231762137264E-004
   1.9611111111111112          4.7577213263139129E-004
   1.9711111111111110          7.4931955896317959E-004
   1.9811111111111113          9.7389810252934694E-004
   1.9911111111111111          1.1582800652831793E-003
   2.0011111111111113          1.3117148773744702E-003
   2.0111111111111111          1.4432439347729087E-003
   2.0211111111111113          1.5611645067110658E-003
   2.0311111111111111          1.6726504545658827E-003
   2.0411111111111113          1.7835091566666961E-003
   2.0511111111111111          1.8980350578203797E-003
   2.0611111111111113          2.0189159549772739E-003
   2.0711111111111111          2.1471583750098944E-003
   2.0811111111111114          2.2820190060883760E-003
   2.0911111111111111          2.4209530092775822E-003
   2.1011111111111114          2.5596136692911386E-003
   2.1111111111111112          2.6919499505311251E-003
   2.1211111111111114          2.8104477096349001E-003
   2.1311111111111112          2.9065439011901617E-003
   2.1411111111111114          2.9712149407714605E-003
   2.1511111111111112          2.9957045335322618E-003
   2.1611111111111114          2.9723229818046093E-003
   2.1711111111111112          2.8952234424650669E-003
   2.1811111111111114          2.7610552497208118E-003
   2.1911111111111112          2.5694028008729219E-003
   2.2011111111111110          2.3229504004120827E-003
   2.2111111111111112          2.0273530390113592E-003
   2.2211111111111110          1.6908408142626286E-003
   2.2311111111111113          1.3236246304586530E-003
   2.2411111111111111          9.3719584401696920E-004
   2.2511111111111113          5.4361997172236443E-004
   2.2611111111111111          1.5491130761802197E-004
   2.2711111111111113         -2.1745859703514725E-004
   2.2811111111111111         -5.6290352949872613E-004
   2.2911111111111113         -8.7194330990314484E-004
   2.3011111111111111         -1.1363583616912365E-003
   2.3111111111111113         -1.3493458973243833E-003
   2.3211111111111111         -1.5057339332997799E-003
   2.3311111111111114         -1.6022805357351899E-003
   2.3411111111111111         -1.6380426241084933E-003
   2.3511111111111114         -1.6147542046383023E-003
   2.3611111111111112         -1.5371224144473672E-003
   2.3711111111111114         -1.4129371847957373E-003
   2.3811111111111112         -1.2529041850939393E-003
   2.3911111111111114         -1.0701507562771440E-003
   2.4011111111111112         -8.7941199308261275E-004
   2.4111111111111114         -6.9596449611708522E-004
   2.4211111111111112         -5.3443090291693807E-004
   2.4311111111111114         -4.0760778938420117E-004
   2.4411111111111112         -3.2547142473049462E-004
   2.4511111111111110         -2.9448722489178181E-004
   2.4611111111111112         -3.1729310285300016E-004
   2.4711111111111110         -3.9275974268093705E-004
   2.4811111111111113         -5.1636697025969625E-004
   2.4911111111111111         -6.8078649928793311E-004
   2.5011111111111113         -8.7654497474431992E-004
   2.5111111111111111         -1.0926532559096813E-003
   2.5211111111111113         -1.3171312166377902E-003
   2.5311111111111111         -1.5374132199212909E-003
   2.5411111111111113         -1.7406777478754520E-003
   2.5511111111111111         -1.9141830271109939E-003
   2.5611111111111113         -2.0457003265619278E-003
   2.5711111111111111         -2.1241111680865288E-003
   2.5811111111111114         -2.1401839330792427E-003
   2.5911111111111111         -2.0874720066785812E-003
   2.6011111111111114         -1.9632123876363039E-003
   2.6111111111111112         -1.7690598033368587E-003
   2.6211111111111114         -1.5114820562303066E-003
   2.6311111111111112         -1.2016798136755824E-003
   2.6411111111111114         -8.5496506653726101E-004
   2.6511111111111112         -4.8962968867272139E-004
   2.6611111111111114         -1.2543328921310604E-004
   2.6711111111111112          2.1808351448271424E-004
   2.6811111111111114          5.2321725524961948E-004
   2.6911111111111112          7.7542115468531847E-004
   2.7011111111111110          9.6415722509846091E-004
   2.7111111111111112          1.0832089465111494E-003
   2.7211111111111110          1.1304919607937336E-003
   2.7311111111111113          1.1074972571805120E-003
   2.7411111111111111          1.0185611899942160E-003
   2.7511111111111113          8.7016879115253687E-004
   2.7611111111111111          6.7045504692941904E-004
   2.7711111111111113          4.2898886022157967E-004
   2.7811111111111111          1.5682178491260856E-004
   2.7911111111111113         -1.3330891670193523E-004
   2.8011111111111111         -4.2679774924181402E-004
   2.8111111111111113         -7.0719944778829813E-004
   2.8211111111111111         -9.5662078820168972E-004
   2.8311111111111114         -1.1565486202016473E-003
   2.8411111111111111         -1.2890796642750502E-003
   2.8511111111111114         -1.3384117046371102E-003
   2.8611111111111112         -1.2923779431730509E-003
   2.8711111111111114         -1.1437715729698539E-003
   2.8811111111111112         -8.9122931240126491E-004
   2.8911111111111114         -5.3951697191223502E-004
   2.9011111111111112         -9.9165081337559968E-005
   2.9111111111111114          4.1447867988608778E-004
   2.9211111111111112          9.8261237144470215E-004
   2.9311111111111114          1.5845278976485133E-003
   2.9411111111111112          2.1991012617945671E-003
   2.9511111111111110          2.8060218319296837E-003
   2.9611111111111112          3.3866346348077059E-003
   2.9711111111111110          3.9243726059794426E-003
   2.9811111111111113          4.4048433192074299E-003
   2.9911111111111111          4.8157097771763802E-003
   3.0011111111111113          5.1465290598571301E-003
   3.0111111111111111          5.3886985406279564E-003
   3.0211111111111113          5.5356035009026527E-003
   3.0311111111111111          5.5829798802733421E-003
   3.0411111111111113          5.5294330231845379E-003
   3.0511111111111111          5.3769727237522602E-003
   3.0611111111111113          5.1314150914549828E-003
   3.0711111111111111          4.8024924471974373E-003
   3.0811111111111114          4.4035697355866432E-003
   3.0911111111111111          3.9509348571300507E-003
   3.1011111111111114          3.4627239219844341E-003
   3.1111111111111112          2.9576106462627649E-003
   3.1211111111111109          2.4534473195672035E-003
   3.1311111111111116          1.9660533871501684E-003
   3.1411111111111114          1.5083296457305551E-003
   3.1511111111111112          1.0898092295974493E-003
   3.1611111111111110          7.1667850716039538E-004
   3.1711111111111117          3.9221229963004589E-004
   3.1811111111111114          1.1749217810574919E-004
   3.1911111111111112         -1.0777021088870242E-004
   3.2011111111111110         -2.8449346427805722E-004
   3.2111111111111108         -4.1373044950887561E-004
   3.2211111111111115         -4.9651286099106073E-004
   3.2311111111111113         -5.3405005019158125E-004
   3.2411111111111111         -5.2820867858827114E-004
   3.2511111111111108         -4.8212843830697238E-004
   3.2611111111111115         -4.0078675374388695E-004
   3.2711111111111113         -2.9132713098078966E-004
   3.2811111111111111         -1.6300730931106955E-004
   3.2911111111111109         -2.6699606678448617E-005
   3.3011111111111116          1.0602676775306463E-004
   3.3111111111111113          2.2411700047086924E-004
   3.3211111111111111          3.1833865796215832E-004
   3.3311111111111109          3.8245486211962998E-004
   3.3411111111111116          4.1404430521652102E-004
   3.3511111111111114          4.1481072548776865E-004
   3.3611111111111112          3.9031921187415719E-004
   3.3711111111111109          3.4920871257781982E-004
   3.3811111111111116          3.0202875495888293E-004
   3.3911111111111114          2.5992104201577604E-004
   3.4011111111111112          2.3338470782618970E-004
   3.4111111111111110          2.3133412469178438E-004
   3.4211111111111117          2.6057779905386269E-004
   3.4311111111111114          3.2574214856140316E-004
   3.4411111111111112          4.2955562821589410E-004
   3.4511111111111110          5.7332561118528247E-004
   3.4611111111111117          7.5740303145721555E-004
   3.4711111111111115          9.8144705407321453E-004
   3.4811111111111113          1.2443704763427377E-003
   3.4911111111111111          1.5439445851370692E-003
   3.5011111111111108          1.8761527026072145E-003
   3.5111111111111115          2.2344635799527168E-003
   3.5211111111111113          2.6092391926795244E-003
   3.5311111111111111          2.9874758329242468E-003
   3.5411111111111109          3.3530087675899267E-003
   3.5511111111111116          3.6872082855552435E-003
   3.5611111111111113          3.9700809866189957E-003
   3.5711111111111111          4.1815978474915028E-003
   3.5811111111111109          4.3030250817537308E-003
   3.5911111111111116          4.3180477805435658E-003
   3.6011111111111114          4.2135352268815041E-003
   3.6111111111111112          3.9799120277166367E-003
   3.6211111111111109          3.6111951339989901E-003
   3.6311111111111116          3.1048555392771959E-003
   3.6411111111111114          2.4616911541670561E-003
   3.6511111111111112          1.6858767485246062E-003
   3.6611111111111110          7.8527309233322740E-004
   3.6711111111111117         -2.2803968749940395E-004
   3.6811111111111114         -1.3371561653912067E-003
   3.6911111111111112         -2.5199081283062696E-003
   3.7011111111111110         -3.7488602101802826E-003
   3.7111111111111117         -4.9919597804546356E-003
   3.7211111111111115         -6.2139513902366161E-003
   3.7311111111111113         -7.3785092681646347E-003
   3.7411111111111111         -8.4508862346410751E-003
   3.7511111111111108         -9.4007505103945732E-003
   3.7611111111111115         -1.0204821825027466E-002
   3.7711111111111113         -1.0848931968212128E-002
   3.7811111111111111         -1.1329245753586292E-002
   3.7911111111111109         -1.1652517132461071E-002
   3.8011111111111116         -1.1835425160825253E-002
   3.8111111111111113         -1.1903199367225170E-002
   3.8211111111111111         -1.1887811124324799E-002
   3.8311111111111109         -1.1826046742498875E-002
   3.8411111111111116         -1.1757711879909039E-002
   3.8511111111111114         -1.1724113486707211E-002
   3.8611111111111112         -1.1766832321882248E-002
   3.8711111111111109         -1.1926687322556973E-002
   3.8811111111111116         -1.2242723256349564E-002
   3.8911111111111114         -1.2751044705510139E-002
   3.9011111111111112         -1.3483389280736446E-002
   3.9111111111111110         -1.4465404674410820E-002
   3.9211111111111117         -1.5714749693870544E-002
   3.9311111111111114         -1.7239205539226532E-002
   3.9411111111111112         -1.9035050645470619E-002
   3.9511111111111110         -2.1085962653160095E-002
   3.9611111111111117         -2.3362616077065468E-002
   3.9711111111111115         -2.5823071599006653E-002
   3.9811111111111113         -2.8413912281394005E-002
   3.9911111111111111         -3.1071977689862251E-002
   4.0011111111111113         -3.3726472407579422E-002
   4.0111111111111111         -3.6301210522651672E-002
   4.0211111111111109         -3.8716755807399750E-002
   4.0311111111111106         -4.0892355144023895E-002
   4.0411111111111104         -4.2747545987367630E-002
   4.0511111111111120         -4.4203534722328186E-002
   4.0611111111111118         -4.5184362679719925E-002
   4.0711111111111116         -4.5618064701557159E-002
   4.0811111111111114         -4.5437905937433243E-002
   4.0911111111111111         -4.4583786278963089E-002
   4.1011111111111109         -4.3003905564546585E-002
   4.1111111111111107         -4.0656652301549911E-002
   4.1211111111111105         -3.7512652575969696E-002
   4.1311111111111121         -3.3556897193193436E-002
   4.1411111111111119         -2.8790803626179695E-002
   4.1511111111111116         -2.3234009742736816E-002
   4.1611111111111114         -1.6925768926739693E-002
   4.1711111111111112         -9.9257528781890869E-003
   4.1811111111111110         -2.3140963166952133E-003
   4.1911111111111108          5.8093965053558350E-003
   4.2011111111111106          1.4326955191791058E-002
   4.2111111111111121          2.3105410858988762E-002
   4.2211111111111119          3.1999506056308746E-002
   4.2311111111111117          4.0855742990970612E-002
   4.2411111111111115          4.9516528844833374E-002
   4.2511111111111113          5.7824324816465378E-002
   4.2611111111111111          6.5625578165054321E-002
   4.2711111111111109          7.2774276137351990E-002
   4.2811111111111106          7.9135015606880188E-002
   4.2911111111111104          8.4585703909397125E-002
   4.3011111111111120          8.9019924402236938E-002
   4.3111111111111118          9.2349193990230560E-002
   4.3211111111111116          9.4505168497562408E-002
   4.3311111111111114          9.5441848039627075E-002
   4.3411111111111111          9.5137670636177063E-002
   4.3511111111111109          9.3597277998924255E-002
   4.3611111111111107          9.0852655470371246E-002
   4.3711111111111105          8.6963273584842682E-002
   4.3811111111111121          8.2015030086040497E-002
   4.3911111111111119          7.6117843389511108E-002
   4.4011111111111116          6.9401927292346954E-002
   4.4111111111111114          6.2013059854507446E-002
   4.4211111111111112          5.4107286036014557E-002
   4.4311111111111110          4.5845497399568558E-002
   4.4411111111111108          3.7388410419225693E-002
   4.4511111111111106          2.8892274945974350E-002
   4.4611111111111121          2.0505513995885849E-002
   4.4711111111111119          1.2366215698421001E-002
   4.4811111111111117          4.6002920717000961E-003
   4.4911111111111115         -2.6800197083503008E-003
   4.5011111111111113         -9.3775996938347816E-003
   4.5111111111111111         -1.5412028878927231E-002
   4.5211111111111109         -2.0721325650811195E-002
   4.5311111111111106         -2.5263652205467224E-002
   4.5411111111111104         -2.9018670320510864E-002
   4.5511111111111120         -3.1988117843866348E-002