 -0.88888888888888884          0.0000000000000000     
 -0.87888888888888883          0.0000000000000000     
 -0.86888888888888882          0.0000000000000000     
 -0.85888888888888881          0.0000000000000000     
 -0.84888888888888880          0.0000000000000000     
 -0.83888888888888880          0.0000000000000000     
 -0.82888888888888879          0.0000000000000000     
 -0.81888888888888878          1.5344256748090485E-036
 -0.80888888888888888          7.9740178373822610E-037
 -0.79888888888888887          9.6056324438034606E-035
 -0.78888888888888886          1.0768059062699947E-033
 -0.77888888888888885          4.6383545062348630E-033
 -0.76888888888888884          9.2621012911088513E-033
 -0.75888888888888884          2.7355456173733399E-033
 -0.74888888888888883         -2.1780195568352726E-032
 -0.73888888888888882          1.2908632438837409E-032
 -0.72888888888888881          3.3622904717417457E-031
 -0.71888888888888880          1.0599365793285440E-030
 -0.70888888888888890          1.2596658589117876E-030
 -0.69888888888888889         -1.8518903512458913E-030
 -0.68888888888888888         -1.0988588899961351E-029
 -0.67888888888888888         -2.1408739576836809E-029
 -0.66888888888888887         -1.1800392445644876E-029
 -0.65888888888888886          5.0438140193105324E-029
 -0.64888888888888885          1.6855002205073360E-028
 -0.63888888888888884          2.4574220903849760E-028
 -0.62888888888888883          5.4254012275309598E-029
 -0.61888888888888882         -6.3090436453288298E-028
 -0.60888888888888881         -1.6666350626265825E-027
 -0.59888888888888880         -2.1264487183260962E-027
 -0.58888888888888880         -3.5804910633029631E-028
 -0.57888888888888879          4.8808199320004293E-027
 -0.56888888888888878          1.2210729418481443E-026
 -0.55888888888888877          1.5692346223630979E-026
 -0.54888888888888876          5.8015153641466139E-027
 -0.53888888888888875         -2.4355266935890230E-026
 -0.52888888888888885         -6.8449275856752533E-026
 -0.51888888888888884         -9.8288444960754712E-026
 -0.50888888888888884         -6.7726599148884400E-026
 -0.49888888888888883          6.2376963572031396E-026
 -0.48888888888888882          2.8143675290791316E-025
 -0.47888888888888881          4.9051454903113694E-025
 -0.46888888888888886          5.0412018097490346E-025
 -0.45888888888888885          1.2424720727197473E-025
 -0.44888888888888884         -7.1460493517449220E-025
 -0.43888888888888883         -1.7859108807998061E-024
 -0.42888888888888882         -2.5044959150639777E-024
 -0.41888888888888881         -2.0678339911076913E-024
 -0.40888888888888886          1.4698774989058742E-025
 -0.39888888888888885          4.0250921658391955E-024
 -0.38888888888888884          8.2583931235588039E-024
 -0.37888888888888883          1.0362788451040773E-023
 -0.36888888888888882          7.4762927562955362E-024
 -0.35888888888888881         -2.0474742800048422E-024
 -0.34888888888888880         -1.6731092933795379E-023
 -0.33888888888888880         -3.0760848449075376E-023
 -0.32888888888888879         -3.4749969740927851E-023
 -0.31888888888888878         -1.9419939528737492E-023
 -0.30888888888888888          1.8044557385041037E-023
 -0.29888888888888887          6.7163680579389363E-023
 -0.28888888888888886          1.0114009016121387E-022
 -0.27888888888888885          8.2909558817766979E-023
 -0.26888888888888884         -1.6234741652230319E-023
 -0.25888888888888884         -1.8769558106718235E-022
 -0.24888888888888883         -3.5793024980093868E-022
 -0.23888888888888882         -3.8345647602934433E-022
 -0.22888888888888881         -9.3244198345126751E-023
 -0.21888888888888880          6.0805110797977365E-022
 -0.20888888888888879          1.5940394424427309E-021
 -0.19888888888888878          2.3933231061096593E-021
 -0.18888888888888877          2.1986654552115543E-021
 -0.17888888888888888          1.2416013053728134E-022
 -0.16888888888888887         -4.2443045165847158E-021
 -0.15888888888888886         -1.0123212435421547E-020
 -0.14888888888888885         -1.4970148320509904E-020
 -0.13888888888888884         -1.4604571648265545E-020
 -0.12888888888888883         -4.5046927339220260E-021
 -0.11888888888888882          1.7594338424156037E-020
 -0.10888888888888881          4.8415957233759882E-020
  -9.8888888888888804E-002     7.6698364207373213E-020
  -8.8888888888888795E-002     8.3743403323350530E-020
  -7.8888888888888786E-002     4.8844145985378250E-020
  -6.8888888888888777E-002    -4.0142422429996340E-020
  -5.8888888888888768E-002    -1.7371290464450820E-019
  -4.8888888888888871E-002    -3.1102885421031164E-019
  -3.8888888888888862E-002    -3.8142691327164375E-019
  -2.8888888888888853E-002    -3.0346733773702299E-019
  -1.8888888888888844E-002    -2.1824307432204940E-020
  -8.8888888888888351E-003     4.4749892112690010E-019
   1.1111111111111738E-003     9.8329461635531373E-019
   1.1111111111111183E-002     1.3611773967442916E-018
   2.1111111111111192E-002     1.3101352864685179E-018
   3.1111111111111200E-002     6.2305911394969528E-019
   4.1111111111111209E-002    -7.0792691421944680E-019
   5.1111111111111218E-002    -2.3877924957547731E-018
   6.1111111111111227E-002    -3.8138481494834363E-018
   7.1111111111111125E-002    -4.2183274749029848E-018
   8.1111111111111134E-002    -2.9549962388418252E-018
   9.1111111111111143E-002     1.4568061963978986E-019
  0.10111111111111115          4.4929278636231322E-018
  0.11111111111111116          8.6860714111866339E-018
  0.12111111111111117          1.0814844705829615E-017
  0.13111111111111118          9.1076307754844836E-018
  0.14111111111111119          2.7675990914533962E-018
  0.15111111111111120         -7.3019906240516677E-018
  0.16111111111111120         -1.8233126997838887E-017
  0.17111111111111121         -2.5654937215160699E-017
  0.18111111111111122         -2.4929963039094723E-017
  0.19111111111111123         -1.2919173986191041E-017
  0.20111111111111124          1.0235967996733367E-017
  0.21111111111111125          3.9956317597218661E-017
  0.22111111111111126          6.7261589322263507E-017
  0.23111111111111127          8.0300093210802060E-017
  0.24111111111111128          6.7287198834028149E-017
  0.25111111111111128          2.0388941653886839E-017
  0.26111111111111129         -6.0193278048438682E-017
  0.27111111111111108         -1.6284151500937780E-016
  0.28111111111111109         -2.6284671138986299E-016
  0.29111111111111110         -3.2354908932682601E-016
  0.30111111111111111         -3.0148427809754551E-016
  0.31111111111111112         -1.5656456411886001E-016
  0.32111111111111112          1.3248358948198766E-016
  0.33111111111111113          5.4906152654725523E-016
  0.34111111111111114          1.0206264205634384E-015
  0.35111111111111115          1.4096494891169069E-015
  0.36111111111111116          1.5239999957874215E-015
  0.37111111111111117          1.1562095021227766E-015
  0.38111111111111118          1.5475957661293050E-016
  0.39111111111111119         -1.4818301428710110E-015
  0.40111111111111120         -3.5137582100398020E-015
  0.41111111111111120         -5.4123304687840601E-015
  0.42111111111111121         -6.4026204043415857E-015
  0.43111111111111122         -5.6312626511444055E-015
  0.44111111111111123         -2.4600447767324793E-015
  0.45111111111111124          3.1677742619648638E-015
  0.46111111111111125          1.0401421443714722E-014
  0.47111111111111126          1.7352821789088160E-014
  0.48111111111111127          2.1317600056068933E-014
  0.49111111111111128          1.9433659867972020E-014
  0.50111111111111128          9.7261837188225390E-015
  0.51111111111111129         -7.6961023952369992E-015
  0.52111111111111108         -2.9703703960468758E-014
  0.53111111111111109         -4.9967964336518345E-014
  0.54111111111111110         -5.9969126290238678E-014
  0.55111111111111111         -5.1340215309310724E-014
  0.56111111111111112         -1.9232264232235154E-014
  0.57111111111111112          3.4160991228696438E-014
  0.58111111111111113          9.7230749384995263E-014
  0.59111111111111114          1.4918001187656793E-013
  0.60111111111111115          1.6392968796644092E-013
  0.61111111111111116          1.1784448200255482E-013
  0.62111111111111117          2.4510862055577381E-017
  0.63111111111111118         -1.7760201946256937E-013
  0.64111111111111119         -3.7426257839395793E-013
  0.65111111111111120         -5.2241923894497111E-013
  0.66111111111111120         -5.4069254499036767E-013
  0.67111111111111121         -3.5759955652019115E-013
  0.68111111111111122          5.7808358794320114E-014
  0.69111111111111123          6.6637261030358386E-013
  0.70111111111111124          1.3411379212041608E-012
  0.71111111111111125          1.8725966957622298E-012
  0.72111111111111126          2.0044636523525172E-012
  0.73111111111111127          1.5002662740598582E-012
  0.74111111111111128          2.3089955511826354E-013
  0.75111111111111128         -1.7373314158825037E-012
  0.76111111111111129         -4.0824921568316519E-012
  0.77111111111111130         -6.2245473532451800E-012
  0.78111111111111109         -7.4033435631948308E-012
  0.79111111111111110         -6.8430100995386933E-012
  0.80111111111111111         -3.9845076023337089E-012
  0.81111111111111112          1.2587559033300222E-012
  0.82111111111111112          8.2894177633185961E-012
  0.83111111111111113          1.5735426850405076E-011
  0.84111111111111114          2.1546849374165511E-011
  0.85111111111111115          2.3314851785305457E-011
  0.86111111111111116          1.8795668146887046E-011
  0.87111111111111117          6.5595146502006596E-012
  0.88111111111111118         -1.3374955656897392E-011
  0.89111111111111119         -3.9099928156316466E-011
  0.90111111111111120         -6.6753318150869490E-011
  0.91111111111111120         -9.0968850507966437E-011
  0.92111111111111121         -1.0589080307044085E-010
  0.93111111111111122         -1.0667972061284559E-010
  0.94111111111111123         -9.1297948368040949E-011
  0.95111111111111124         -6.2246548193645168E-011
  0.96111111111111125         -2.7850943773444214E-011
  0.97111111111111126         -2.7006472145402194E-012
  0.98111111111111127         -6.9380196032753361E-012
  0.99111111111111128         -6.4272566435708001E-011
   1.0011111111111113         -1.9882789858982619E-010
   1.0111111111111113         -4.3117695525118904E-010
   1.0211111111111113         -7.7410522436593965E-010
   1.0311111111111111         -1.2287327821880467E-009
   1.0411111111111111         -1.7815465769288608E-009
   1.0511111111111111         -2.4025823552875636E-009
   1.0611111111111111         -3.0444753384983869E-009
   1.0711111111111111         -3.6413323467598957E-009
   1.0811111111111111         -4.1055199240247475E-009
   1.0911111111111111         -4.3192471821384970E-009
   1.1011111111111112         -4.1166967612582539E-009
   1.1111111111111112         -3.2510552028242046E-009
   1.1211111111111114         -1.3391716624511218E-009
   1.1311111111111112          2.2252535369915449E-009
   1.1411111111111114          8.4012592438398315E-009
   1.1511111111111112          1.8686698410874669E-008
   1.1611111111111110          3.5378690199650009E-008
   1.1711111111111112          6.1930236938678718E-008
   1.1811111111111110          1.0343115519617641E-007
   1.1911111111111112          1.6725070395295916E-007
   1.2011111111111110          2.6388971718915855E-007
   1.2111111111111112          4.0810667201185424E-007
   1.2211111111111110          6.2039737258601235E-007
   1.2311111111111113          9.2893060354981571E-007
   1.2411111111111111          1.3720679135076352E-006
   1.2511111111111113          2.0016195776406676E-006
   1.2611111111111111          2.8870331334474031E-006
   1.2711111111111113          4.1207331378245726E-006
   1.2811111111111111          5.8248865570931230E-006
   1.2911111111111113          8.1598855103948154E-006
   1.3011111111111111          1.1334873306623194E-005
   1.3111111111111113          1.5620687918271869E-005
   1.3211111111111111          2.1365553038776852E-005
   1.3311111111111114          2.9013855964876711E-005
   1.3411111111111111          3.9128350181272253E-005
   1.3511111111111114          5.2415958634810522E-005
   1.3611111111111112          6.9757297751493752E-005
   1.3711111111111114          9.2239861260168254E-005
   1.3811111111111112          1.2119454913772643E-004
   1.3911111111111114          1.5823480498511344E-004
   1.4011111111111112          2.0529753237497061E-004
   1.4111111111111114          2.6468405849300325E-004
   1.4211111111111112          3.3909932244569063E-004
   1.4311111111111110          4.3168629053980112E-004
   1.4411111111111112          5.4605287732556462E-004
   1.4511111111111110          6.8628677399829030E-004
   1.4611111111111112          8.5695390589535236E-004
   1.4711111111111110          1.0630754986777902E-003
   1.4811111111111113          1.3100778451189399E-003
   1.4911111111111111          1.6037095338106155E-003
   1.5011111111111113          1.9499211339280009E-003
   1.5111111111111111          2.3547012824565172E-003
   1.5211111111111113          2.8238662052899599E-003
   1.5311111111111111          3.3628004603087902E-003
   1.5411111111111113          3.9761490188539028E-003
   1.5511111111111111          4.6674632467329502E-003
   1.5611111111111113          5.4388074204325676E-003
   1.5711111111111111          6.2903314828872681E-003
   1.5811111111111114          7.2198319248855114E-003
   1.5911111111111111          8.2223080098628998E-003
   1.6011111111111114          9.2895422130823135E-003
   1.6111111111111112          1.0409725829958916E-002
   1.6211111111111114          1.1567160487174988E-002
   1.6311111111111112          1.2742058373987675E-002
   1.6411111111111114          1.3910470530390739E-002
   1.6511111111111112          1.5044375322759151E-002
   1.6611111111111114          1.6111945733428001E-002
   1.6711111111111112          1.7078008502721786E-002
   1.6811111111111110          1.7904715612530708E-002
   1.6911111111111112          1.8552418798208237E-002
   1.7011111111111110          1.8980741500854492E-002
   1.7111111111111112          1.9149832427501678E-002
   1.7211111111111110          1.9021755084395409E-002
   1.7311111111111113          1.8561977893114090E-002
   1.7411111111111111          1.7740923911333084E-002
   1.7511111111111113          1.6535483300685883E-002
   1.7611111111111111          1.4930464327335358E-002
   1.7711111111111113          1.2919874861836433E-002
   1.7811111111111111          1.0507989674806595E-002
   1.7911111111111113          7.7101290225982666E-003
   1.8011111111111111          4.5530945062637329E-003
   1.8111111111111113          1.0752221569418907E-003
   1.8211111111111111         -2.6739793829619884E-003
   1.8311111111111114         -6.6346116364002228E-003
   1.8411111111111111         -1.0737583972513676E-002
   1.8511111111111114         -1.4906201511621475E-002
   1.8611111111111112         -1.9058093428611755E-002
   1.8711111111111114         -2.3107415065169334E-002
   1.8811111111111112         -2.6967259123921394E-002
   1.8911111111111114         -3.0552180483937263E-002
   1.9011111111111112         -3.3780738711357117E-002
   1.9111111111111114         -3.6577966064214706E-002
   1.9211111111111112         -3.8877677172422409E-002
   1.9311111111111110         -4.0624521672725677E-002
   1.9411111111111112         -4.1775703430175781E-002
   1.9511111111111110         -4.2302325367927551E-002
   1.9611111111111112         -4.2190272361040115E-002
   1.9711111111111110         -4.1440658271312714E-002
   1.9811111111111113         -4.0069784969091415E-002
   1.9911111111111111         -3.8108639419078827E-002
   2.0011111111111113         -3.5601947456598282E-002
   2.0111111111111111         -3.2606817781925201E-002
   2.0211111111111113         -2.9191046953201294E-002
   2.0311111111111111         -2.5431122630834579E-002
   2.0411111111111113         -2.1410010755062103E-002
   2.0511111111111111         -1.7214797437191010E-002
   2.0611111111111113         -1.2934244237840176E-002
   2.0711111111111111         -8.6563667282462120E-003
   2.0811111111111114         -4.4660712592303753E-003
   2.0911111111111111         -4.4294743565842509E-004
   2.1011111111111114          3.3407313749194145E-003
   2.1111111111111112          6.8217432126402855E-003
   2.1211111111111114          9.9473381415009499E-003
   2.1311111111111112          1.2676309794187546E-002
   2.1411111111111114          1.4979686588048935E-002
   2.1511111111111112          1.6841040924191475E-002
   2.1611111111111114          1.8256394192576408E-002
   2.1711111111111112          1.9233748316764832E-002
   2.1811111111111114          1.9792256876826286E-002
   2.1911111111111112          1.9961070269346237E-002
   2.2011111111111110          1.9777903333306313E-002
   2.2111111111111112          1.9287386909127235E-002
   2.2211111111111110          1.8539246171712875E-002
   2.2311111111111113          1.7586398869752884E-002
   2.2411111111111111          1.6483023762702942E-002
   2.2511111111111113          1.5282679349184036E-002
   2.2611111111111111          1.4036530628800392E-002
   2.2711111111111113          1.2791757471859455E-002
   2.2811111111111111          1.1590181849896908E-002
   2.2911111111111113          1.0467171669006348E-002
   2.3011111111111111          9.4508379697799683E-003
   2.3111111111111113          8.5615515708923340E-003
   2.3211111111111111          7.8117763623595238E-003
   2.3311111111111114          7.2062145918607712E-003
   2.3411111111111111          6.7422362044453621E-003
   2.3511111111111114          6.4105628989636898E-003
   2.3611111111111112          6.1961631290614605E-003
   2.3711111111111114          6.0793091543018818E-003
   2.3811111111111112          6.0367435216903687E-003
   2.3911111111111114          6.0429060831665993E-003
   2.4011111111111112          6.0711647383868694E-003
   2.4111111111111114          6.0950084589421749E-003
   2.4211111111111112          6.0891630128026009E-003
   2.4311111111111114          6.0305921360850334E-003
   2.4411111111111112          5.8993636630475521E-003
   2.4511111111111110          5.6793605908751488E-003
   2.4611111111111112          5.3588235750794411E-003
   2.4711111111111110          4.9307201988995075E-003
   2.4811111111111113          4.3929321691393852E-003
   2.4911111111111111          3.7482685875147581E-003
   2.5011111111111113          3.0042966827750206E-003
   2.5111111111111111          2.1730053704231977E-003
   2.5211111111111113          1.2703028041869402E-003
   2.5311111111111111          3.1536584720015526E-004
   2.5411111111111113         -6.7014060914516449E-004
   2.5511111111111111         -1.6629464225843549E-003
   2.5611111111111113         -2.6391262654215097E-003
   2.5711111111111111         -3.5750737879425287E-003
   2.5811111111111114         -4.4484538957476616E-003
   2.5911111111111111         -5.2390806376934052E-003
   2.6011111111111114         -5.9296777471899986E-003
   2.6111111111111112         -6.5064765512943268E-003
   2.6211111111111114         -6.9596217945218086E-003
   2.6311111111111112         -7.2833723388612270E-003
   2.6411111111111114         -7.4760913848876953E-003
   2.6511111111111112         -7.5400429777801037E-003
   2.6611111111111114         -7.4810255318880081E-003
   2.6711111111111112         -7.3078814893960953E-003
   2.6811111111111114         -7.0319264195859432E-003
   2.6911111111111112         -6.6663441248238087E-003
   2.7011111111111110         -6.2255845405161381E-003
   2.7111111111111112         -5.7247970253229141E-003
   2.7211111111111110         -5.1793092861771584E-003
   2.7311111111111113         -4.6041663736104965E-003
   2.7411111111111111         -4.0137195028364658E-003
   2.7511111111111113         -3.4212619066238403E-003
   2.7611111111111111         -2.8387010097503662E-003
   2.7711111111111113         -2.2762678563594818E-003
   2.7811111111111111         -1.7422673990949988E-003
   2.7911111111111113         -1.2428844347596169E-003
   2.8011111111111111         -7.8206526814028621E-004
   2.8111111111111113         -3.6150138475932181E-004
   2.8211111111111111          1.9263217836851254E-005
   2.8311111111111114          3.6258724867366254E-004
   2.8411111111111111          6.7235069582238793E-004
   2.8511111111111114          9.5345539739355445E-004
   2.8611111111111112          1.2112442636862397E-003
   2.8711111111111114          1.4508931199088693E-003
   2.8811111111111112          1.6768352361395955E-003
   2.8911111111111114          1.8922812305390835E-003
   2.9011111111111112          2.0988874603062868E-003
   2.9111111111111114          2.2966067772358656E-003
   2.9211111111111112          2.4837334640324116E-003
   2.9311111111111114          2.6571280322968960E-003
   2.9411111111111112          2.8125836979597807E-003
   2.9511111111111110          2.9452783055603504E-003
   2.9611111111111112          3.0502509325742722E-003
   2.9711111111111110          3.1228389125317335E-003
   2.9811111111111113          3.1590303406119347E-003
   2.9911111111111111          3.1557045876979828E-003
   3.0011111111111113          3.1107559334486723E-003
   3.0111111111111111          3.0231226701289415E-003
   3.0211111111111113          2.8927566017955542E-003
   3.0311111111111111          2.7205776423215866E-003
   3.0411111111111113          2.5084544904530048E-003
   3.0511111111111111          2.2592379245907068E-003
   3.0611111111111113          1.9768527708947659E-003
   3.0711111111111111          1.6664321301504970E-003
   3.0811111111111114          1.3344552135095000E-003
   3.0911111111111111          9.8883779719471931E-004
   3.1011111111111114          6.3892104662954807E-004
   3.1111111111111112          2.9531127074733377E-004
   3.1211111111111109         -3.0453997169388458E-005
   3.1311111111111116         -3.2641337020322680E-004
   3.1411111111111114         -5.8083090698346496E-004
   3.1511111111111112         -7.8292877878993750E-004
   3.1611111111111110         -9.2362536815926433E-004
   3.1711111111111117         -9.9619489628821611E-004
   3.1811111111111114         -9.9677033722400665E-004
   3.1911111111111112         -9.2463206965476274E-004
   3.2011111111111110         -7.8225252218544483E-004
   3.2111111111111108         -5.7510228361934423E-004
   3.2211111111111115         -3.1125204986892641E-004
   3.2311111111111113         -8.3128787764508161E-007
   3.2411111111111111          3.4458353184163570E-004
   3.2511111111111108          7.1257725358009338E-004
   3.2611111111111115          1.0904389200732112E-003
   3.2711111111111113          1.4655987033620477E-003
   3.2811111111111111          1.8259438220411539E-003
   3.2911111111111109          2.1600248292088509E-003
   3.3011111111111116          2.4571849498897791E-003
   3.3111111111111113          2.7076548431068659E-003
   3.3211111111111111          2.9026593547314405E-003
   3.3311111111111109          3.0345697887241840E-003
   3.3411111111111116          3.0971192754805088E-003
   3.3511111111111114          3.0856772791594267E-003
   3.3611111111111112          2.9975557699799538E-003
   3.3711111111111109          2.8323039878159761E-003
   3.3811111111111116          2.5919417385011911E-003
   3.3911111111111114          2.2810762748122215E-003
   3.4011111111111112          1.9068643450737000E-003
   3.4111111111111110          1.4787948457524180E-003
   3.4211111111111117          1.0082883527502418E-003
   3.4311111111111114          5.0813722191378474E-004
   3.4411111111111112         -8.1735679486882873E-006
   3.4511111111111110         -5.2720686653628945E-004
   3.4611111111111117         -1.0363104520365596E-003
   3.4711111111111115         -1.5242854133248329E-003
   3.4811111111111113         -1.9819287117570639E-003
   3.4911111111111111         -2.4024073500186205E-003
   3.5011111111111108         -2.7814386412501335E-003
   3.5111111111111115         -3.1172710005193949E-003
   3.5211111111111113         -3.4104776568710804E-003
   3.5311111111111111         -3.6635929718613625E-003
   3.5411111111111109         -3.8806302472949028E-003
   3.5511111111111116         -4.0665282867848873E-003
   3.5611111111111113         -4.2265737429261208E-003
   3.5711111111111111         -4.3658451177179813E-003
   3.5811111111111109         -4.4887145049870014E-003
   3.5911111111111116         -4.5984350144863129E-003
   3.6011111111111114         -4.6968311071395874E-003
   3.6111111111111112         -4.7840932384133339E-003
   3.6211111111111109         -4.8586777411401272E-003
   3.6311111111111116         -4.9173012375831604E-003
   3.6411111111111114         -4.9550239928066730E-003
   3.6511111111111112         -4.9654082395136356E-003
   3.6611111111111110         -4.9407589249312878E-003
   3.6711111111111117         -4.8724384978413582E-003
   3.6811111111111114         -4.7512697055935860E-003
   3.6911111111111112         -4.5680282637476921E-003
   3.7011111111111110         -4.3140216730535030E-003
   3.7111111111111117         -3.9817481301724911E-003
   3.7211111111111115         -3.5656050313264132E-003
   3.7311111111111113         -3.0626025982201099E-003
   3.7411111111111111         -2.4730241857469082E-003
   3.7511111111111108         -1.8009598134085536E-003
   3.7611111111111115         -1.0546419071033597E-003
   3.7711111111111113         -2.4651567218825221E-004
   3.7811111111111111          6.0699722962453961E-004
   3.7911111111111109          1.4860556693747640E-003
   3.8011111111111116          2.3682538885623217E-003
   3.8111111111111113          3.2297146972268820E-003
   3.8211111111111111          4.0463292971253395E-003
   3.8311111111111109          4.7950339503586292E-003
   3.8411111111111116          5.4550101049244404E-003
   3.8511111111111114          6.0087013989686966E-003
   3.8611111111111112          6.4425743184983730E-003
   3.8711111111111109          6.7475764080882072E-003
   3.8811111111111116          6.9192913360893726E-003
   3.8911111111111114          6.9578252732753754E-003
   3.9011111111111112          6.8674799986183643E-003
   3.9111111111111110          6.6562867723405361E-003
   3.9211111111111117          6.3354666344821453E-003
   3.9311111111111114          5.9188706800341606E-003
   3.9411111111111112          5.4224259220063686E-003
   3.9511111111111110          4.8635913990437984E-003
   3.9611111111111117          4.2608082294464111E-003
   3.9711111111111115          3.6329152062535286E-003
   3.9811111111111113          2.9985089786350727E-003
   3.9911111111111111          2.3752483539283276E-003
   4.0011111111111113          1.7791205318644643E-003
   4.0111111111111111          1.2237207265570760E-003
   4.0211111111111109          7.1961560752242804E-004
   4.0311111111111106          2.7386957663111389E-004
   4.0411111111111104         -1.1019356315955520E-004
   4.0511111111111120         -4.3294706847518682E-004
   4.0611111111111118         -6.9812708534300327E-004
   4.0711111111111116         -9.1224524658173323E-004
   4.0811111111111114         -1.0838303714990616E-003
   4.0911111111111111         -1.2226121034473181E-003
   4.1011111111111109         -1.3387745711952448E-003
   4.1111111111111107         -1.4423982938751578E-003
   4.1211111111111105         -1.5431782230734825E-003
   4.1311111111111121         -1.6504604136571288E-003
   4.1411111111111119         -1.7735807923600078E-003
   4.1511111111111116         -1.9224426941946149E-003
   4.1611111111111114         -2.1082286257296801E-003
   4.1711111111111112         -2.3441256489604712E-003
   4.1811111111111110         -2.6459496002644300E-003
   4.1911111111111108         -3.0325849074870348E-003
   4.2011111111111106         -3.5261998418718576E-003
   4.2111111111111121         -4.1522467508912086E-003
   4.2211111111111119         -4.9393088556826115E-003
   4.2311111111111117         -5.9188785962760448E-003
   4.2411111111111115         -7.1251653134822845E-003
   4.2511111111111113         -8.5950130596756935E-003
   4.2611111111111111         -1.0367969051003456E-002
   4.2711111111111109         -1.2486495077610016E-002
   4.2811111111111106         -1.4996263198554516E-002
   4.2911111111111104         -1.7946416512131691E-002
   4.3011111111111120         -2.1389663219451904E-002
   4.3111111111111118         -2.5382056832313538E-002
   4.3211111111111116         -2.9982337728142738E-002
   4.3311111111111114         -3.5250753164291382E-002
   4.3411111111111111         -4.1247315704822540E-002
   4.3511111111111109         -4.8029545694589615E-002
   4.3611111111111107         -5.5649779736995697E-002
   4.3711111111111105         -6.4152128994464874E-002
   4.3811111111111121         -7.3569260537624359E-002
   4.3911111111111119         -8.3919093012809753E-002
   4.4011111111111116         -9.5201544463634491E-002
   4.4111111111111114        -0.10739541798830032     
   4.4211111111111112        -0.12045542895793915     
   4.4311111111111110        -0.13430948555469513     
   4.4411111111111108        -0.14885622262954712     
   4.4511111111111106        -0.16396276652812958     
   4.4611111111111121        -0.17946298420429230     
   4.4711111111111119        -0.19515611231327057     
   4.4811111111111117        -0.21080604195594788     
   4.4911111111111115        -0.22614142298698425     
   4.5011111111111113        -0.24085670709609985     
   4.5111111111111111        -0.25461444258689880     
   4.5211111111111109        -0.26704874634742737     
   4.5311111111111106        -0.27777031064033508     
   4.5411111111111104        -0.28637284040451050     
   4.5511111111111120        -0.29244086146354675     