 -0.88888888888888884          0.0000000000000000     
 -0.87888888888888883          0.0000000000000000     
 -0.86888888888888882          0.0000000000000000     
 -0.85888888888888881          0.0000000000000000     
 -0.84888888888888880          0.0000000000000000     
 -0.83888888888888880          0.0000000000000000     
 -0.82888888888888879          0.0000000000000000     
 -0.81888888888888878          0.0000000000000000     
 -0.80888888888888888         -6.6256989927733737E-038
 -0.79888888888888887          2.2088646617623188E-036
 -0.78888888888888886          1.9455433086988831E-035
 -0.77888888888888885          5.9384740564062342E-035
 -0.76888888888888884          7.2572099703046505E-035
 -0.75888888888888884          1.1738788496504982E-034
 -0.74888888888888883          1.2643406015803361E-033
 -0.73888888888888882          6.2983508942676342E-033
 -0.72888888888888881          1.5137982454426832E-032
 -0.71888888888888880          1.0102919910624556E-032
 -0.70888888888888890         -5.3543920494220803E-032
 -0.69888888888888889         -1.9859537422255340E-031
 -0.68888888888888888         -2.7534380005581983E-031
 -0.67888888888888888          1.7014856374691965E-031
 -0.66888888888888887          1.6067606586474490E-030
 -0.65888888888888886          3.4113105610015445E-030
 -0.64888888888888885          2.4676475822066208E-030
 -0.63888888888888884         -6.2225856107670933E-030
 -0.62888888888888883         -2.3846357510159584E-029
 -0.61888888888888882         -3.7483610154162093E-029
 -0.60888888888888881         -1.4704420958616860E-029
 -0.59888888888888880          7.9230669481807438E-029
 -0.58888888888888880          2.3078264449196696E-028
 -0.57888888888888879          3.1700715402941544E-028
 -0.56888888888888878          1.0535533741696805E-028
 -0.55888888888888877         -5.9797717360793189E-028
 -0.54888888888888876         -1.6416470845631303E-027
 -0.53888888888888875         -2.2407782753937390E-027
 -0.52888888888888885         -1.0725976676093864E-027
 -0.51888888888888884          2.8992776049110454E-027
 -0.50888888888888884          8.9529642211400131E-027
 -0.49888888888888883          1.3340516131341950E-026
 -0.48888888888888882          9.7216614102152683E-027
 -0.47888888888888881         -7.4331597463575802E-027
 -0.46888888888888886         -3.6839157161359937E-026
 -0.45888888888888885         -6.4859274647680683E-026
 -0.44888888888888884         -6.5708840864748781E-026
 -0.43888888888888883         -1.2146535091947106E-026
 -0.42888888888888882          1.0345199564563707E-025
 -0.41888888888888881          2.4610007378518397E-025
 -0.40888888888888886          3.2958633272037161E-025
 -0.39888888888888885          2.3965320664487840E-025
 -0.38888888888888884         -1.0443619823251343E-025
 -0.37888888888888883         -6.6606765487902091E-025
 -0.36888888888888882         -1.2277371617382537E-024
 -0.35888888888888881         -1.4049816839745446E-024
 -0.34888888888888880         -7.8098156528443803E-025
 -0.33888888888888880          8.4549135606217834E-025
 -0.32888888888888879          3.1823455526891205E-024
 -0.31888888888888878          5.2891616970739869E-024
 -0.30888888888888888          5.7126813955645177E-024
 -0.29888888888888887          3.0045481375658827E-024
 -0.28888888888888886         -3.4552190479075365E-024
 -0.27888888888888885         -1.2611987086285112E-023
 -0.26888888888888884         -2.1294438700332712E-023
 -0.25888888888888884         -2.4581634714163152E-023
 -0.24888888888888883         -1.7155703626917831E-023
 -0.23888888888888882          4.5461272995590742E-024
 -0.22888888888888881          3.9892269992137748E-023
 -0.21888888888888880          8.1964471898875998E-023
 -0.20888888888888879          1.1635955836209388E-022
 -0.19888888888888878          1.2138889373167613E-022
 -0.18888888888888877          7.0576602088850307E-023
 -0.17888888888888888         -6.0669032922915465E-023
 -0.16888888888888887         -2.8147231101043122E-022
 -0.15888888888888886         -5.6329071107720100E-022
 -0.14888888888888885         -8.1262720170253111E-022
 -0.13888888888888884         -8.5258279198180914E-022
 -0.12888888888888883         -4.3972843613188133E-022
 -0.11888888888888882          6.5140695381781840E-022
 -0.10888888888888881          2.4581794379610369E-021
  -9.8888888888888804E-002     4.6013169614323096E-021
  -8.8888888888888795E-002     6.0991136568767474E-021
  -7.8888888888888786E-002     5.3996330903544281E-021
  -6.8888888888888777E-002     8.2576288435593896E-022
  -5.8888888888888768E-002    -8.4728732144853173E-021
  -4.8888888888888871E-002    -2.1225504601311841E-020
  -3.8888888888888862E-002    -3.2941456537378510E-020
  -2.8888888888888853E-002    -3.5877740916788620E-020
  -1.8888888888888844E-002    -2.0980315019936625E-020
  -8.8888888888888351E-003     1.7809673570884050E-020
   1.1111111111111738E-003     7.7653098655321332E-020
   1.1111111111111183E-002     1.4163200998104321E-019
   2.1111111111111192E-002     1.7787049534895871E-019
   3.1111111111111200E-002     1.4654026709138559E-019
   4.1111111111111209E-002     1.6224575797382240E-020
   5.1111111111111218E-002    -2.1325260321363748E-019
   6.1111111111111227E-002    -4.8995112263282860E-019
   7.1111111111111125E-002    -7.0354683777961366E-019
   8.1111111111111134E-002    -7.0609377858445272E-019
   9.1111111111111143E-002    -3.6505142548008460E-019
  0.10111111111111115          3.6033308386850556E-019
  0.11111111111111116          1.3454679961409908E-018
  0.12111111111111117          2.2686944107739287E-018
  0.13111111111111118          2.6597324648297968E-018
  0.14111111111111119          2.0460192510310319E-018
  0.15111111111111120          1.7501950104552106E-019
  0.16111111111111120         -2.7570312387425718E-018
  0.17111111111111121         -5.9750018427951116E-018
  0.18111111111111122         -8.1991871123736339E-018
  0.19111111111111123         -7.9809851385882707E-018
  0.20111111111111124         -4.2613495521521741E-018
  0.21111111111111125          3.0021314716869343E-018
  0.22111111111111126          1.2383899621543689E-017
  0.23111111111111127          2.0974471376649850E-017
  0.24111111111111128          2.4968044780135440E-017
  0.25111111111111128          2.0829319377120270E-017
  0.26111111111111129          6.7732691842169608E-018
  0.27111111111111108         -1.5912882070905195E-017
  0.28111111111111109         -4.2250516261024284E-017
  0.29111111111111110         -6.4082793785226325E-017
  0.30111111111111111         -7.1850032971989056E-017
  0.31111111111111112         -5.7354036844132068E-017
  0.32111111111111112         -1.6863557440189939E-017
  0.33111111111111113          4.6299462789075398E-017
  0.34111111111111114          1.2052667387519895E-016
  0.35111111111111115          1.8662748395258924E-016
  0.36111111111111116          2.2068252300628719E-016
  0.37111111111111117          1.9889220339147629E-016
  0.38111111111111118          1.0397705298416881E-016
  0.39111111111111119         -6.7568526269079883E-017
  0.40111111111111120         -2.9844012109445236E-016
  0.41111111111111120         -5.4541319682475334E-016
  0.42111111111111121         -7.3873274398646399E-016
  0.43111111111111122         -7.8928705841038965E-016
  0.44111111111111123         -6.0665055547724626E-016
  0.45111111111111124         -1.2907360688990926E-016
  0.46111111111111125          6.3788013084692028E-016
  0.47111111111111126          1.5837039601075882E-015
  0.48111111111111127          2.4724972198483016E-015
  0.49111111111111128          2.9593374530957096E-015
  0.50111111111111128          2.6597414761353900E-015
  0.51111111111111129          1.2754440007671595E-015
  0.52111111111111108         -1.2428234914189755E-015
  0.53111111111111109         -4.5421345585541437E-015
  0.54111111111111110         -7.7926624571580949E-015
  0.55111111111111111         -9.7650294968165685E-015
  0.56111111111111112         -9.1086789125822618E-015
  0.57111111111111112         -4.8217621572994168E-015
  0.58111111111111113          3.1815548527419808E-015
  0.59111111111111114          1.3588244841388625E-014
  0.60111111111111115          2.3525552369347245E-014
  0.61111111111111116          2.8944382968968535E-014
  0.62111111111111117          2.5655735199606351E-014
  0.63111111111111118          1.0917707506824005E-014
  0.64111111111111119         -1.4798053529622469E-014
  0.65111111111111120         -4.6475620389934552E-014
  0.66111111111111120         -7.4386609610725685E-014
  0.67111111111111121         -8.5687709640465404E-014
  0.68111111111111122         -6.7973431787729521E-014
  0.69111111111111123         -1.4304341741590461E-014
  0.70111111111111124          7.1546623335062842E-014
  0.71111111111111125          1.7152421247657729E-013
  0.72111111111111126          2.5349001868922583E-013
  0.73111111111111127          2.7678732786654003E-013
  0.74111111111111128          2.0347776469396145E-013
  0.75111111111111128          1.3619059900009736E-014
  0.76111111111111129         -2.7919002830098516E-013
  0.77111111111111130         -6.1744240362898717E-013
  0.78111111111111109         -9.0040138973207506E-013
  0.79111111111111110         -1.0002455677962652E-012
  0.80111111111111111         -7.9455967630023827E-013
  0.81111111111111112         -2.1083650233663653E-013
  0.82111111111111112          7.2710332763362140E-013
  0.83111111111111113          1.8654505024029433E-012
  0.84111111111111114          2.9156490589932194E-012
  0.85111111111111115          3.4914523529272490E-012
  0.86111111111111116          3.1921533558826320E-012
  0.87111111111111117          1.7233266680002912E-012
  0.88111111111111118         -9.6848321463199882E-013
  0.89111111111111119         -4.5835240984615222E-012
  0.90111111111111120         -8.4215750692506752E-012
  0.91111111111111120         -1.1437557498328310E-011
  0.92111111111111121         -1.2420571515736611E-011
  0.93111111111111122         -1.0287908545902891E-011
  0.94111111111111123         -4.4499607991521639E-012
  0.95111111111111124          4.8321863004019416E-012
  0.96111111111111125          1.6197250138350050E-011
  0.97111111111111126          2.7144474168405708E-011
  0.98111111111111127          3.4280488170335133E-011
  0.99111111111111128          3.3873608779044773E-011
   1.0011111111111113          2.2660526233231337E-011
   1.0111111111111113         -1.2322354508292888E-012
   1.0211111111111113         -3.7461568569430170E-011
   1.0311111111111111         -8.2982357096916814E-011
   1.0411111111111111         -1.3213859173522025E-010
   1.0511111111111111         -1.7749265945887771E-010
   1.0611111111111111         -2.1142804174090202E-010
   1.0711111111111111         -2.2838612945275116E-010
   1.0811111111111111         -2.2742072114390055E-010
   1.0911111111111111         -2.1459989341110486E-010
   1.1011111111111112         -2.0469785588783651E-010
   1.1111111111111112         -2.2162090218547092E-010
   1.1211111111111114         -2.9711505478147160E-010
   1.1311111111111112         -4.6750553428509534E-010
   1.1411111111111114         -7.6843881258170654E-010
   1.1511111111111112         -1.2278671412957465E-009
   1.1611111111111110         -1.8576280513826759E-009
   1.1711111111111112         -2.6439554989821090E-009
   1.1811111111111110         -3.5370191220351899E-009
   1.1911111111111112         -4.4389070197325964E-009
   1.2011111111111110         -5.1885744589696969E-009
   1.2111111111111112         -5.5408713173221713E-009
   1.2211111111111110         -5.1346984442091070E-009
   1.2311111111111113         -3.4433484952245408E-009
   1.2411111111111111          3.0278535234629089E-010
   1.2511111111111113          7.2339907397633851E-009
   1.2611111111111111          1.9016567875951296E-008
   1.2711111111111113          3.8107330624370661E-008
   1.2811111111111111          6.8114033524580009E-008
   1.2911111111111113          1.1429644786176141E-007
   1.3011111111111111          1.8424938730277063E-007
   1.3111111111111113          2.8882212177450128E-007
   1.3211111111111111          4.4333998516776774E-007
   1.3311111111111114          6.6920944163939566E-007
   1.3411111111111111          9.9601015790540259E-007
   1.3511111111111114          1.4642066616943339E-006
   1.3611111111111112          2.1286255105223972E-006
   1.3711111111111114          3.0628998501924798E-006
   1.3811111111111112          4.3650961742969230E-006
   1.3911111111111114          6.1647851907764561E-006
   1.4011111111111112          8.6318623289116658E-006
   1.4111111111111114          1.1987455764028709E-005
   1.4211111111111112          1.6517284166184254E-005
   1.4311111111111110          2.2587826606468298E-005
   1.4411111111111112          3.0665680242236704E-005
   1.4511111111111110          4.1340412280987948E-005
   1.4611111111111112          5.5351149057969451E-005
   1.4711111111111110          7.3616989539004862E-005
   1.4811111111111113          9.7271105914842337E-005
   1.4911111111111111          1.2769828026648611E-004
   1.5011111111111113          1.6657497326377779E-004
   1.5111111111111111          2.1591097174677998E-004
   1.5211111111111113          2.7809091261588037E-004
   1.5311111111111111          3.5591330379247665E-004
   1.5411111111111113          4.5262454659678042E-004
   1.5511111111111111          5.7194387773051858E-004
   1.5611111111111113          7.1807572385296226E-004
   1.5711111111111111          8.9570396812632680E-004
   1.5811111111111114          1.1099633993580937E-003
   1.5911111111111111          1.3663824647665024E-003
   1.6011111111111114          1.6707920003682375E-003
   1.6111111111111112          2.0291940309107304E-003
   1.6211111111111114          2.4475867394357920E-003
   1.6311111111111112          2.9317412991076708E-003
   1.6411111111111114          3.4869310911744833E-003
   1.6511111111111112          4.1176108643412590E-003
   1.6611111111111114          4.8270514234900475E-003
   1.6711111111111112          5.6169363670051098E-003
   1.6811111111111110          6.4869304187595844E-003
   1.6911111111111112          7.4342368170619011E-003
   1.7011111111111110          8.4531586617231369E-003
   1.7111111111111112          9.5346858724951744E-003
   1.7211111111111110          1.0666137561202049E-002
   1.7311111111111113          1.1830884963274002E-002
   1.7411111111111111          1.3008175417780876E-002
   1.7511111111111113          1.4173100702464581E-002
   1.7611111111111111          1.5296721830964088E-002
   1.7711111111111113          1.6346380114555359E-002
   1.7811111111111111          1.7286201938986778E-002
   1.7911111111111113          1.8077818676829338E-002
   1.8011111111111111          1.8681287765502930E-002
   1.8111111111111113          1.9056202843785286E-002
   1.8211111111111111          1.9162980839610100E-002
   1.8311111111111114          1.8964279443025589E-002
   1.8411111111111111          1.8426511436700821E-002
   1.8511111111111114          1.7521377652883530E-002
   1.8611111111111112          1.6227385029196739E-002
   1.8711111111111114          1.4531262218952179E-002
   1.8811111111111112          1.2429209426045418E-002
   1.8911111111111114          9.9279014393687248E-003
   1.9011111111111112          7.0452024228870869E-003
   1.9111111111111114          3.8105212152004242E-003
   1.9211111111111112          2.6477835490368307E-004
   1.9311111111111110         -3.5400474444031715E-003
   1.9411111111111112         -7.5417952612042427E-003
   1.9511111111111110         -1.1669412255287170E-002
   1.9611111111111112         -1.5844622626900673E-002
   1.9711111111111110         -1.9983928650617599E-002
   1.9811111111111113         -2.4000879377126694E-002
   1.9911111111111111         -2.7808519080281258E-002
   2.0011111111111113         -3.1321935355663300E-002
   2.0111111111111111         -3.4460801631212234E-002
   2.0211111111111113         -3.7151843309402466E-002
   2.0311111111111111         -3.9331085979938507E-002
   2.0411111111111113         -4.0945861488580704E-002
   2.0511111111111111         -4.1956450790166855E-002
   2.0611111111111113         -4.2337324470281601E-002
   2.0711111111111111         -4.2077943682670593E-002
   2.0811111111111114         -4.1183069348335266E-002
   2.0911111111111111         -3.9672620594501495E-002
   2.1011111111111114         -3.7581048905849457E-002
   2.1111111111111112         -3.4956268966197968E-002
   2.1211111111111114         -3.1858213245868683E-002
   2.1311111111111112         -2.8357041999697685E-002
   2.1411111111111114         -2.4531070142984390E-002
   2.1511111111111112         -2.0464500412344933E-002
   2.1611111111111114         -1.6245018690824509E-002
   2.1711111111111112         -1.1961355805397034E-002
   2.1811111111111114         -7.7008595690131187E-003
   2.1911111111111112         -3.5471785813570023E-003
   2.2011111111111110          4.2189488885924220E-004
   2.2111111111111112          4.1363504715263844E-003
   2.2211111111111110          7.5356024317443371E-003
   2.2311111111111113          1.0569810867309570E-002
   2.2411111111111111          1.3200839981436729E-002
   2.2511111111111113          1.5402842313051224E-002
   2.2611111111111111          1.7162449657917023E-002
   2.2711111111111113          1.8478574231266975E-002
   2.2811111111111111          1.9361844286322594E-002
   2.2911111111111113          1.9833685830235481E-002
   2.3011111111111111          1.9925111904740334E-002
   2.3111111111111113          1.9675234332680702E-002
   2.3211111111111111          1.9129587337374687E-002
   2.3311111111111114          1.8338315188884735E-002
   2.3411111111111111          1.7354272305965424E-002
   2.3511111111111114          1.6231141984462738E-002
   2.3611111111111112          1.5021604485809803E-002
   2.3711111111111114          1.3775642029941082E-002
   2.3811111111111112          1.2539029121398926E-002
   2.3911111111111114          1.1352056637406349E-002
   2.4011111111111112          1.0248523205518723E-002
   2.4111111111111114          9.2550134286284447E-003
   2.4211111111111112          8.3904881030321121E-003
   2.4311111111111114          7.6661692000925541E-003
   2.4411111111111112          7.0857098326086998E-003
   2.4511111111111110          6.6456338390707970E-003
   2.4611111111111112          6.3359993509948254E-003
   2.4711111111111110          6.1412607319653034E-003
   2.4811111111111113          6.0412795282900333E-003
   2.4911111111111111          6.0124462470412254E-003
   2.5011111111111113          6.0288691893219948E-003
   2.5111111111111111          6.0635870322585106E-003
   2.5211111111111113          6.0897674411535263E-003
   2.5311111111111111          6.0818544588983059E-003
   2.5411111111111113          6.0166241601109505E-003
   2.5511111111111111          5.8741187676787376E-003
   2.5611111111111113          5.6384284980595112E-003
   2.5711111111111111          5.2982931956648827E-003
   2.5811111111111114          4.8474990762770176E-003
   2.5911111111111111          4.2850626632571220E-003
   2.6011111111111114          3.6151860840618610E-003
   2.6111111111111112          2.8469937387853861E-003
   2.6211111111111114          1.9940601196140051E-003
   2.6311111111111112          1.0737532284110785E-003
   2.6411111111111114          1.0643094719853252E-004
   2.6511111111111112         -8.8546797633171082E-004
   2.6611111111111114         -1.8783881096169353E-003
   2.6711111111111112         -2.8486263472586870E-003
   2.6811111111111114         -3.7732569035142660E-003
   2.6911111111111112         -4.6309698373079300E-003
   2.7011111111111110         -5.4027899168431759E-003
   2.7111111111111112         -6.0726534575223923E-003
   2.7211111111111110         -6.6278334707021713E-003
   2.7311111111111113         -7.0592123083770275E-003
   2.7411111111111111         -7.3614073917269707E-003
   2.7511111111111113         -7.5327693484723568E-003
   2.7611111111111111         -7.5752623379230499E-003
   2.7711111111111113         -7.4942433275282383E-003
   2.7811111111111111         -7.2981519624590874E-003
   2.7911111111111113         -6.9981175474822521E-003
   2.8011111111111111         -6.6074891947209835E-003
   2.8111111111111113         -6.1412933282554150E-003
   2.8211111111111111         -5.6156292557716370E-003
   2.8311111111111114         -5.0470125861465931E-003
   2.8411111111111111         -4.4516944326460361E-003
   2.8511111111111114         -3.8449845742434263E-003
   2.8611111111111112         -3.2406207174062729E-003
   2.8711111111111114         -2.6502250693738461E-003
   2.8811111111111112         -2.0828938577324152E-003
   2.8911111111111114         -1.5449535567313433E-003
   2.9011111111111112         -1.0399080347269773E-003
   2.9111111111111114         -5.6858180323615670E-004
   2.9211111111111112         -1.2944549962412566E-004
   2.9311111111111114          2.8091017156839371E-004
   2.9411111111111112          6.6720094764605165E-004
   2.9511111111111110          1.0348341893404722E-003
   2.9611111111111112          1.3893120922148228E-003
   2.9711111111111110          1.7357048345729709E-003
   2.9811111111111113          2.0782309584319592E-003
   2.9911111111111111          2.4199639447033405E-003
   3.0011111111111113          2.7626631781458855E-003
   3.0111111111111111          3.1067095696926117E-003
   3.0211111111111113          3.4511159174144268E-003
   3.0311111111111111          3.7935758009552956E-003
   3.0411111111111113          4.1305231861770153E-003
   3.0511111111111111          4.4571780599653721E-003
   3.0611111111111113          4.7675822861492634E-003
   3.0711111111111111          5.0546317361295223E-003
   3.0811111111111114          5.3101382218301296E-003
   3.0911111111111111          5.5249533616006374E-003
   3.1011111111111114          5.6891907006502151E-003
   3.1111111111111112          5.7925698347389698E-003
   3.1211111111111109          5.8248857967555523E-003
   3.1311111111111116          5.7765939272940159E-003
   3.1411111111111114          5.6394641287624836E-003
   3.1511111111111112          5.4072551429271698E-003
   3.1611111111111110          5.0763371400535107E-003
   3.1711111111111117          4.6461950987577438E-003
   3.1811111111111114          4.1197626851499081E-003
   3.1911111111111112          3.5035402979701757E-003
   3.2011111111111110          2.8074905276298523E-003
   3.2111111111111108          2.0447249989956617E-003
   3.2211111111111115          1.2310165911912918E-003
   3.2311111111111113          3.8419093471020460E-004
   3.2411111111111111         -4.7654440277256072E-004
   3.2511111111111108         -1.3312810333445668E-003
   3.2611111111111115         -2.1600595209747553E-003
   3.2711111111111113         -2.9434664174914360E-003
   3.2811111111111111         -3.6631727125495672E-003
   3.2911111111111109         -4.3024276383221149E-003
   3.3011111111111116         -4.8465216532349586E-003
   3.3111111111111113         -5.2832402288913727E-003
   3.3211111111111111         -5.6033078581094742E-003
   3.3311111111111109         -5.8008190244436264E-003
   3.3411111111111116         -5.8736205101013184E-003
   3.3511111111111114         -5.8236024342477322E-003
   3.3611111111111112         -5.6568440049886703E-003
   3.3711111111111109         -5.3835585713386536E-003
   3.3811111111111116         -5.0177951343357563E-003
   3.3911111111111114         -4.5768832787871361E-003
   3.4011111111111112         -4.0806266479194164E-003
   3.4111111111111110         -3.5502975806593895E-003
   3.4211111111111117         -3.0074988026171923E-003
   3.4311111111111114         -2.4729960132390261E-003
   3.4411111111111112         -1.9656184595078230E-003
   3.4511111111111110         -1.5013264492154121E-003
   3.4611111111111117         -1.0925245005637407E-003
   3.4711111111111115         -7.4766488978639245E-004
   3.4811111111111113         -4.7115562483668327E-004
   3.4911111111111111         -2.6355011505074799E-004
   3.5011111111111108         -1.2196721218060702E-004
   3.5111111111111115         -4.0672104660188779E-005
   3.5211111111111113         -1.1742804417735897E-005
   3.5311111111111111         -2.5751685825525783E-005
   3.5411111111111109         -7.2408787673339248E-005
   3.5511111111111116         -1.4113458746578544E-004
   3.5611111111111113         -2.2155320039018989E-004
   3.5711111111111111         -3.0391497421078384E-004
   3.5811111111111109         -3.7946834345348179E-004
   3.5911111111111116         -4.4080195948481560E-004
   3.6011111111111114         -4.8216932918876410E-004
   3.6111111111111112         -4.9979321192950010E-004
   3.6211111111111109         -4.9212924204766750E-004
   3.6311111111111116         -4.6005166950635612E-004
   3.6411111111111114         -4.0691488538868725E-004
   3.6511111111111112         -3.3844352583400905E-004
   3.6611111111111110         -2.6241448358632624E-004
   3.6711111111111117         -1.8811598420143127E-004
   3.6811111111111114         -1.2559628521557897E-004
   3.6911111111111112         -8.4747713117394596E-005
   3.7011111111111110         -7.4301613494753838E-005
   3.7111111111111117         -1.0083374945679680E-004
   3.7211111111111115         -1.6788914217613637E-004
   3.7311111111111113         -2.7533335378393531E-004
   3.7411111111111111         -4.1901806253008544E-004
   3.7511111111111108         -5.9081614017486572E-004
   3.7611111111111115         -7.7903975034132600E-004
   3.7711111111111113         -9.6921063959598541E-004
   3.7811111111111111         -1.1451086029410362E-003
   3.7911111111111109         -1.2899925932288170E-003
   3.8011111111111116         -1.3878672616556287E-003
   3.8111111111111113         -1.4246660284698009E-003
   3.8211111111111111         -1.3892365386709571E-003
   3.8311111111111109         -1.2740435777232051E-003
   3.8411111111111116         -1.0755426483228803E-003
   3.8511111111111114         -7.9422636190429330E-004
   3.8611111111111112         -4.3438331340439618E-004
   3.8711111111111109         -3.6454766814131290E-006
   3.8811111111111116          4.8758357297629118E-004
   3.8911111111111114          1.0267239995300770E-003
   3.9011111111111112          1.5995588619261980E-003
   3.9111111111111110          2.1906646434217691E-003
   3.9211111111111117          2.7837166562676430E-003
   3.9311111111111114          3.3616886939853430E-003
   3.9411111111111112          3.9069959893822670E-003
   3.9511111111111110          4.4016428291797638E-003
   3.9611111111111117          4.8274430446326733E-003
   3.9711111111111115          5.1663541235029697E-003
   3.9811111111111113          5.4009472951292992E-003
   3.9911111111111111          5.5149779655039310E-003
   4.0011111111111113          5.4940045811235905E-003
   4.0111111111111111          5.3259460255503654E-003
   4.0211111111111109          5.0014778971672058E-003
   4.0311111111111106          4.5141507871448994E-003
   4.0411111111111104          3.8601604755967855E-003
   4.0511111111111120          3.0377295333892107E-003
   4.0611111111111118          2.0461296662688255E-003
   4.0711111111111116          8.8442047126591206E-004
   4.0811111111111114         -4.4996291399002075E-004
   4.0911111111111111         -1.9626140128821135E-003
   4.1011111111111109         -3.6633869167417288E-003
   4.1111111111111107         -5.5673117749392986E-003
   4.1211111111111105         -7.6950937509536743E-003
   4.1311111111111121         -1.0073152370750904E-002
   4.1411111111111119         -1.2733227573335171E-002
   4.1511111111111116         -1.5711614862084389E-002
   4.1611111111111114         -1.9048158079385757E-002
   4.1711111111111112         -2.2785110399127007E-002
   4.1811111111111110         -2.6965962722897530E-002
   4.1911111111111108         -3.1634315848350525E-002
   4.2011111111111106         -3.6832790821790695E-002
   4.2111111111111121         -4.2601920664310455E-002
   4.2211111111111119         -4.8978947103023529E-002
   4.2311111111111117         -5.5996354669332504E-002
   4.2411111111111115         -6.3680082559585571E-002
   4.2511111111111113         -7.2047233581542969E-002
   4.2611111111111111         -8.1103362143039703E-002
   4.2711111111111109         -9.0839341282844543E-002
   4.2811111111111106        -0.10122790187597275     
   4.2911111111111104        -0.11222018301486969     
   4.3011111111111120        -0.12374240905046463     
   4.3111111111111118        -0.13569304347038269     
   4.3211111111111116        -0.14794069528579712     
   4.3311111111111114        -0.16032287478446960     
   4.3411111111111111        -0.17264585196971893     
   4.3511111111111109        -0.18468560278415680     
   4.3611111111111107        -0.19618989527225494     
   4.3711111111111105        -0.20688129961490631     
   4.3811111111111121        -0.21646124124526978     
   4.3911111111111119        -0.22461479902267456     
   4.4011111111111116        -0.23101624846458435     
   4.4111111111111114        -0.23533535003662109     
   4.4211111111111112        -0.23724420368671417     
   4.4311111111111110        -0.23642480373382568     
   4.4411111111111108        -0.23257711529731750     
   4.4511111111111106        -0.22542776167392731     
   4.4611111111111121        -0.21473911404609680     
   4.4711111111111119        -0.20031861960887909     
   4.4811111111111117        -0.18202804028987885     
   4.4911111111111115        -0.15979231894016266     
   4.5011111111111113        -0.13360759615898132     
   4.5111111111111111        -0.10354811698198318     
   4.5211111111111109         -6.9771364331245422E-002
   4.5311111111111106         -3.2521355897188187E-002
   4.5411111111111104          7.8704096376895905E-003
   4.5511111111111120          5.0986383110284805E-002