 -0.88888888888888884          0.0000000000000000     
 -0.87888888888888883          0.0000000000000000     
 -0.86888888888888882          0.0000000000000000     
 -0.85888888888888881          0.0000000000000000     
 -0.84888888888888880          0.0000000000000000     
 -0.83888888888888880          0.0000000000000000     
 -0.82888888888888879          0.0000000000000000     
 -0.81888888888888878          0.0000000000000000     
 -0.80888888888888888          0.0000000000000000     
 -0.79888888888888887          0.0000000000000000     
 -0.78888888888888886         -3.7998629303913768E-038
 -0.77888888888888885         -1.4512686330379875E-036
 -0.76888888888888884         -6.3901692401467179E-036
 -0.75888888888888884         -1.0102212369784125E-035
 -0.74888888888888883          7.3928327745237346E-036
 -0.73888888888888882          2.7952251211814769E-035
 -0.72888888888888881         -1.7400977184635453E-034
 -0.71888888888888880         -1.0271272191168409E-033
 -0.70888888888888890         -2.1356412589808013E-033
 -0.69888888888888889         -3.6547818323743841E-035
 -0.68888888888888888          1.1692038397406559E-032
 -0.67888888888888888          3.2048880753594363E-032
 -0.66888888888888887          3.0465387007281045E-032
 -0.65888888888888886         -6.0181502160404456E-032
 -0.64888888888888885         -2.7635112818481348E-031
 -0.63888888888888884         -4.5580287160761543E-031
 -0.62888888888888883         -1.0624510557845009E-031
 -0.61888888888888882          1.3343520679856324E-030
 -0.60888888888888881          3.5497913186922552E-030
 -0.59888888888888880          4.1349452595259370E-030
 -0.58888888888888880         -1.2313842171473879E-030
 -0.57888888888888879         -1.5124986882425808E-029
 -0.56888888888888878         -3.1318181780709382E-029
 -0.55888888888888877         -2.9710794630592719E-029
 -0.54888888888888876          1.6517687010522981E-029
 -0.53888888888888875          1.1427511343552740E-028
 -0.52888888888888885          2.1358401786621603E-028
 -0.51888888888888884          1.9380345344583312E-028
 -0.50888888888888884         -8.2279711491795167E-029
 -0.49888888888888883         -6.3111255755987124E-028
 -0.48888888888888882         -1.1893827853561229E-027
 -0.47888888888888881         -1.1809660863131618E-027
 -0.46888888888888886          2.9736508804615827E-029
 -0.45888888888888885          2.5741053264376544E-027
 -0.44888888888888884          5.4574595351615006E-027
 -0.43888888888888883          6.3989188032241129E-027
 -0.42888888888888882          2.6659552366014150E-027
 -0.41888888888888881         -6.9966931764089008E-027
 -0.40888888888888886         -2.0068556717576409E-026
 -0.39888888888888885         -2.9126732180462363E-026
 -0.38888888888888884         -2.3617429307499881E-026
 -0.37888888888888883          4.7037526292153890E-027
 -0.36888888888888882          5.3980476008278676E-026
 -0.35888888888888881          1.0589470343865393E-025
 -0.34888888888888880          1.2599197037909731E-025
 -0.33888888888888880          7.4997234289467008E-026
 -0.32888888888888879         -6.8709026798724017E-026
 -0.31888888888888878         -2.8199593203019841E-025
 -0.30888888888888888         -4.7883832295012128E-025
 -0.29888888888888887         -5.1839979595456818E-025
 -0.28888888888888886         -2.5296486464193365E-025
 -0.27888888888888885          3.8450973786644646E-025
 -0.26888888888888884          1.2770458000876114E-024
 -0.25888888888888884          2.0557013103853921E-024
 -0.24888888888888883          2.1366242397647739E-024
 -0.23888888888888882          9.2355269250787096E-025
 -0.22888888888888881         -1.8188935496775492E-024
 -0.21888888888888880         -5.5226799078070582E-024
 -0.20888888888888879         -8.5406522886123132E-024
 -0.19888888888888878         -8.3674539325665140E-024
 -0.18888888888888877         -2.6327962526891231E-024
 -0.17888888888888888          9.1613256822574897E-024
 -0.16888888888888887          2.3752185337646709E-023
 -0.15888888888888886          3.3311018030045066E-023
 -0.14888888888888885          2.7253888408824846E-023
 -0.13888888888888884         -2.3903648998031859E-024
 -0.12888888888888883         -5.2953329559355309E-023
 -0.11888888888888882         -1.0413146964647367E-022
 -0.10888888888888881         -1.1815870396230058E-022
  -9.8888888888888804E-002    -5.3219402876355494E-023
  -8.8888888888888795E-002     1.0851628672382863E-022
  -7.8888888888888786E-002     3.2657493470635047E-022
  -6.8888888888888777E-002     4.8167230930200184E-022
  -5.8888888888888768E-002     3.9593085343046178E-022
  -4.8888888888888871E-002    -8.6325212941403608E-023
  -3.8888888888888862E-002    -9.6441454118342408E-022
  -2.8888888888888853E-002    -1.9448318768248382E-021
  -1.8888888888888844E-002    -2.3966914033354337E-021
  -8.8888888888888351E-003    -1.5056313842760542E-021
   1.1111111111111738E-003     1.3177008362550863E-021
   1.1111111111111183E-002     5.8452722025027535E-021
   2.1111111111111192E-002     1.0502494941116284E-020
   3.1111111111111200E-002     1.2297250688157609E-020
   4.1111111111111209E-002     7.6061979588571504E-021
   5.1111111111111218E-002    -6.0270996681770502E-021
   6.1111111111111227E-002    -2.7443455193202762E-020
   7.1111111111111125E-002    -4.9788511595101046E-020
   8.1111111111111134E-002    -6.0324084874990214E-020
   9.1111111111111143E-002    -4.3594676872357740E-020
  0.10111111111111115          1.1538473227060028E-020
  0.11111111111111116          1.0236415656541123E-019
  0.12111111111111117          2.0399642630977496E-019
  0.13111111111111118          2.6774763678484601E-019
  0.14111111111111119          2.3157761353731634E-019
  0.15111111111111120          4.4873827679140035E-020
  0.16111111111111120         -2.9650772440633738E-019
  0.17111111111111121         -7.1712945363046408E-019
  0.18111111111111122         -1.0496832017406306E-018
  0.19111111111111123         -1.0632918737807764E-018
  0.20111111111111124         -5.4313495861086693E-019
  0.21111111111111125          5.8815198870238094E-019
  0.22111111111111126          2.1446332421177662E-018
  0.23111111111111127          3.6093389099679697E-018
  0.24111111111111128          4.1949823700652070E-018
  0.25111111111111128          3.0791130353941819E-018
  0.26111111111111129         -2.0330003070688481E-019
  0.27111111111111108         -5.3181819725295239E-018
  0.28111111111111109         -1.0838010726064775E-017
  0.29111111111111110         -1.4327871668355585E-017
  0.30111111111111111         -1.2981594689575517E-017
  0.31111111111111112         -4.7914714087639333E-018
  0.32111111111111112          1.0044225876382350E-017
  0.33111111111111113          2.8049644940836415E-017
  0.34111111111111114          4.2441985411773158E-017
  0.35111111111111115          4.4694805192616429E-017
  0.36111111111111116          2.7732355001473325E-017
  0.37111111111111117         -9.9938654663288970E-018
  0.38111111111111118         -6.1097492337077548E-017
  0.39111111111111119         -1.0849359147760635E-016
  0.40111111111111120         -1.2890748255312901E-016
  0.41111111111111120         -1.0097433442104211E-016
  0.42111111111111121         -1.6167298011908129E-017
  0.43111111111111122          1.1139904683558661E-016
  0.44111111111111123          2.4152580684650858E-016
  0.45111111111111124          3.1541606425574743E-016
  0.46111111111111125          2.7547091690552068E-016
  0.47111111111111126          9.3452496560966715E-017
  0.48111111111111127         -2.0279410036767263E-016
  0.49111111111111128         -5.1770537269152589E-016
  0.50111111111111128         -7.0412001314633789E-016
  0.51111111111111129         -6.1229311839493998E-016
  0.52111111111111108         -1.6341081379416130E-016
  0.53111111111111109          5.7664192516148011E-016
  0.54111111111111110          1.3592411819972642E-015
  0.55111111111111111          1.7868151551999993E-015
  0.56111111111111112          1.4375621893442515E-015
  0.57111111111111112          6.5973688960853144E-017
  0.58111111111111113         -2.1795663333916892E-015
  0.59111111111111114         -4.6180511570012312E-015
  0.60111111111111115         -6.0825639230238648E-015
  0.61111111111111116         -5.2255842678699573E-015
  0.62111111111111117         -1.0728138145096704E-015
  0.63111111111111118          6.3036890736846516E-015
  0.64111111111111119          1.5241141546528877E-014
  0.65111111111111120          2.2384300833798269E-014
  0.66111111111111120          2.3299057453317340E-014
  0.67111111111111121          1.3893654428982424E-014
  0.68111111111111122         -7.5671704281377386E-015
  0.69111111111111123         -3.8431250234038580E-014
  0.70111111111111124         -7.0475695862926707E-014
  0.71111111111111125         -9.0496403773454581E-014
  0.72111111111111126         -8.3299469752495803E-014
  0.73111111111111127         -3.7030152707194508E-014
  0.74111111111111128          5.0211554071489736E-014
  0.75111111111111128          1.6453629908194656E-013
  0.76111111111111129          2.7392956067524843E-013
  0.77111111111111130          3.3200241058954638E-013
  0.78111111111111109          2.8921364001593952E-013
  0.79111111111111110          1.1067459204953597E-013
  0.80111111111111111         -2.0328348921717920E-013
  0.81111111111111112         -6.0035407634800864E-013
  0.82111111111111112         -9.7135830195299588E-013
  0.83111111111111113         -1.1643546370121438E-012
  0.84111111111111114         -1.0209904753241683E-012
  0.85111111111111115         -4.3160017660498484E-013
  0.86111111111111116          6.0270896346664715E-013
  0.87111111111111117          1.9201868827617430E-012
  0.88111111111111118          3.1836601497442496E-012
  0.89111111111111119          3.9208562611914299E-012
  0.90111111111111120          3.6289055527910508E-012
  0.91111111111111120          1.9337615276421305E-012
  0.92111111111111121         -1.2270287867363616E-012
  0.93111111111111122         -5.4500466639684220E-012
  0.94111111111111123         -9.8028139425276883E-012
  0.95111111111111124         -1.2908528412847176E-011
  0.96111111111111125         -1.3209231451705161E-011
  0.97111111111111126         -9.3922161714665720E-012
  0.98111111111111127         -9.0713873045211724E-013
  0.99111111111111128          1.1553690296151053E-011
   1.0011111111111113          2.5774203951667296E-011
   1.0111111111111113          3.8092185655758115E-011
   1.0211111111111113          4.3943251815115048E-011
   1.0311111111111111          3.8877193131447996E-011
   1.0411111111111111          1.9915903995415540E-011
   1.0511111111111111         -1.3021270693636122E-011
   1.0611111111111111         -5.6009079318908306E-011
   1.0711111111111111         -1.0074449607877511E-010
   1.0811111111111111         -1.3525974784656114E-010
   1.0911111111111111         -1.4587883678807145E-010
   1.1011111111111112         -1.2028655849150027E-010
   1.1111111111111112         -5.1240144072206562E-011
   1.1211111111111114          5.9858513978827688E-011
   1.1311111111111112          2.0050745785926694E-010
   1.1411111111111114          3.4674260684930402E-010
   1.1511111111111112          4.6559686661673538E-010
   1.1611111111111110          5.2061061017738552E-010
   1.1711111111111112          4.7993503615728628E-010
   1.1811111111111110          3.2580660391801075E-010
   1.1911111111111112          6.3493092727906486E-011
   1.2011111111111110         -2.7260901869219367E-010
   1.2111111111111112         -6.1807964302218465E-010
   1.2211111111111110         -8.8468748993264512E-010
   1.2311111111111113         -9.7474595062152503E-010
   1.2411111111111111         -8.0347872799535480E-010
   1.2511111111111113         -3.2806707350729880E-010
   1.2611111111111111          4.1887318613653690E-010
   1.2711111111111113          1.2938827786967977E-009
   1.2811111111111111          2.0070163309071631E-009
   1.2911111111111113          2.0859427518615803E-009
   1.3011111111111111          8.3603524103637028E-010
   1.3111111111111113         -2.7119197998359823E-009
   1.3211111111111111         -9.8810684079353450E-009
   1.3311111111111114         -2.2477303573964491E-008
   1.3411111111111111         -4.2999086957706822E-008
   1.3511111111111114         -7.4969307206629310E-008
   1.3611111111111112         -1.2344351318915869E-007
   1.3711111111111114         -1.9576174281610292E-007
   1.3811111111111112         -3.0262731343100313E-007
   1.3911111111111114         -4.5961888872625423E-007
   1.4011111111111112         -6.8926567564631114E-007
   1.4111111111111114         -1.0238499044135096E-006
   1.4211111111111112         -1.5091476370798773E-006
   1.4311111111111110         -2.2093652205512626E-006
   1.4411111111111112         -3.2136101708601927E-006
   1.4511111111111110         -4.6443110477412120E-006
   1.4611111111111112         -6.6681186581263319E-006
   1.4711111111111110         -9.5099176178337075E-006
   1.4811111111111113         -1.3470745216181967E-005
   1.4911111111111111         -1.8950548110296950E-005
   1.5011111111111113         -2.6476845960132778E-005
   1.5111111111111111         -3.6740537325385958E-005
   1.5211111111111113         -5.0640202971408144E-005
   1.5311111111111111         -6.9336267188191414E-005
   1.5411111111111113         -9.4316528702620417E-005
   1.5511111111111111         -1.2747434084303677E-004
   1.5611111111111113         -1.7120057600550354E-004
   1.5711111111111111         -2.2849011293146759E-004
   1.5811111111111114         -3.0306295957416296E-004
   1.5911111111111111         -3.9949917118065059E-004
   1.6011111111111114         -5.2338611567392945E-004
   1.6111111111111112         -6.8147468846291304E-004
   1.6211111111111114         -8.8183965999633074E-004
   1.6311111111111112         -1.1340376222506166E-003
   1.6411111111111114         -1.4492531772702932E-003
   1.6511111111111112         -1.8404226284474134E-003
   1.6611111111111114         -2.3223215248435736E-003
   1.6711111111111112         -2.9115986544638872E-003
   1.6811111111111110         -3.6267396062612534E-003
   1.6911111111111112         -4.4879387132823467E-003
   1.7011111111111110         -5.5168597027659416E-003
   1.7111111111111112         -6.7362622357904911E-003
   1.7211111111111110         -8.1694759428501129E-003
   1.7311111111111113         -9.8397042602300644E-003
   1.7411111111111111         -1.1769142001867294E-002
   1.7511111111111113         -1.3977907598018646E-002
   1.7611111111111111         -1.6482789069414139E-002
   1.7711111111111113         -1.9295809790492058E-002
   1.7811111111111111         -2.2422658279538155E-002
   1.7911111111111113         -2.5861002504825592E-002
   1.8011111111111111         -2.9598755761981010E-002
   1.8111111111111113         -3.3612359315156937E-002
   1.8211111111111111         -3.7865161895751953E-002
   1.8311111111111114         -4.2306013405323029E-002
   1.8411111111111111         -4.6868152916431427E-002
   1.8511111111111114         -5.1468513906002045E-002
   1.8611111111111112         -5.6007586419582367E-002
   1.8711111111111114         -6.0369879007339478E-002
   1.8811111111111112         -6.4425140619277954E-002
   1.8911111111111114         -6.8030335009098053E-002
   1.9011111111111112         -7.1032509207725525E-002
   1.9111111111111114         -7.3272459208965302E-002
   1.9211111111111112         -7.4589192867279053E-002
   1.9311111111111110         -7.4825145304203033E-002
   1.9411111111111112         -7.3831945657730103E-002
   1.9511111111111110         -7.1476601064205170E-002
   1.9611111111111112         -6.7647852003574371E-002
   1.9711111111111110         -6.2262453138828278E-002
   1.9811111111111113         -5.5271062999963760E-002
   1.9911111111111111         -4.6663474291563034E-002
   2.0011111111111113         -3.6472875624895096E-002
   2.0111111111111111         -2.4778863415122032E-002
   2.0211111111111113         -1.1708955280482769E-002
   2.0311111111111111          2.5615997146815062E-003
   2.0411111111111113          1.7811844125390053E-002
   2.0511111111111111          3.3778999000787735E-002
   2.0611111111111113          5.0164196640253067E-002
   2.0711111111111111          6.6639907658100128E-002
   2.0811111111111114          8.2858905196189880E-002
   2.0911111111111111          9.8464332520961761E-002
   2.1011111111111114         0.11310068517923355     
   2.1111111111111112         0.12642513215541840     
   2.1211111111111114         0.13811878859996796     
   2.1311111111111112         0.14789739251136780     
   2.1411111111111114         0.15552105009555817     
   2.1511111111111112         0.16080251336097717     
   2.1611111111111114         0.16361354291439056     
   2.1711111111111112         0.16388931870460510     
   2.1811111111111114         0.16163052618503571     
   2.1911111111111112         0.15690302848815918     
   2.2011111111111110         0.14983527362346649     
   2.2111111111111112         0.14061345160007477     
   2.2211111111111110         0.12947469949722290     
   2.2311111111111113         0.11669855564832687     
   2.2411111111111111         0.10259725898504257     
   2.2511111111111113          8.7505124509334564E-002
   2.2611111111111111          7.1767605841159821E-002
   2.2711111111111113          5.5730383843183517E-002
   2.2811111111111111          3.9729021489620209E-002
   2.2911111111111113          2.4079477414488792E-002
   2.3011111111111111          9.0698376297950745E-003
   2.3111111111111113         -5.0464714877307415E-003
   2.3211111111111111         -1.8055818974971771E-002
   2.3311111111111114         -2.9787756502628326E-002
   2.3411111111111111         -4.0116664022207260E-002
   2.3511111111111114         -4.8961706459522247E-002
   2.3611111111111112         -5.6285262107849121E-002
   2.3711111111111114         -6.2090039253234863E-002
   2.3811111111111112         -6.6415093839168549E-002
   2.3911111111111114         -6.9331035017967224E-002
   2.4011111111111112         -7.0934623479843140E-002
   2.4111111111111114         -7.1343079209327698E-002
   2.4211111111111112         -7.0688366889953613E-002
   2.4311111111111114         -6.9111637771129608E-002
   2.4411111111111112         -6.6758111119270325E-002
   2.4511111111111110         -6.3772425055503845E-002
   2.4611111111111112         -6.0294657945632935E-002
   2.4711111111111110         -5.6457083672285080E-002
   2.4811111111111113         -5.2381582558155060E-002
   2.4911111111111111         -4.8177793622016907E-002
   2.5011111111111113         -4.3941922485828400E-002
   2.5111111111111111         -3.9756156504154205E-002
   2.5211111111111113         -3.5688616335391998E-002
   2.5311111111111111         -3.1793765723705292E-002
   2.5411111111111113         -2.8113149106502533E-002
   2.5511111111111111         -2.4676423519849777E-002
   2.5611111111111113         -2.1502548828721046E-002
   2.5711111111111111         -1.8601100891828537E-002
   2.5811111111111114         -1.5973644331097603E-002
   2.5911111111111111         -1.3615127652883530E-002
   2.6011111111111114         -1.1515251360833645E-002
   2.6111111111111112         -9.6597746014595032E-003
   2.6211111111111114         -8.0317081883549690E-003
   2.6311111111111112         -6.6123697906732559E-003
   2.6411111111111114         -5.3822733461856842E-003
   2.6511111111111112         -4.3218447826802731E-003
   2.6611111111111114         -3.4119691699743271E-003
   2.6711111111111112         -2.6343744248151779E-003
   2.6811111111111114         -1.9718585535883904E-003
   2.6911111111111112         -1.4083808055147529E-003
   2.7011111111111110         -9.2903431504964828E-004
   2.7111111111111112         -5.1993574015796185E-004
   2.7211111111111110         -1.6807728388812393E-004
   2.7311111111111113          1.3881003542337567E-004
   2.7411111111111111          4.1234117816202343E-004
   2.7511111111111113          6.6348229302093387E-004
   2.7611111111111111          9.0246880427002907E-004
   2.7711111111111113          1.1386410333216190E-003
   2.7811111111111111          1.3802121393382549E-003
   2.7911111111111113          1.6339845024049282E-003
   2.8011111111111111          1.9050328992307186E-003
   2.8111111111111113          2.1963773760944605E-003
   2.8211111111111111          2.5086719542741776E-003
   2.8311111111111114          2.8399433940649033E-003
   2.8411111111111111          3.1854161061346531E-003
   2.8511111111111114          3.5374504514038563E-003
   2.8611111111111112          3.8856144528836012E-003
   2.8711111111111114          4.2168926447629929E-003
   2.8811111111111112          4.5160269364714622E-003
   2.8911111111111114          4.7659869305789471E-003
   2.9011111111111112          4.9485587514936924E-003
   2.9111111111111114          5.0450526177883148E-003
   2.9211111111111112          5.0371116958558559E-003
   2.9311111111111114          4.9076098948717117E-003
   2.9411111111111112          4.6415915712714195E-003
   2.9511111111111110          4.2272065766155720E-003
   2.9611111111111112          3.6565882619470358E-003
   2.9711111111111110          2.9266146011650562E-003
   2.9811111111111113          2.0395086612552404E-003
   2.9911111111111111          1.0032401187345386E-003
   3.0011111111111113         -1.6830676759127527E-004
   3.0111111111111111         -1.4554243534803391E-003
   3.0211111111111113         -2.8329517226666212E-003
   3.0311111111111111         -4.2709251865744591E-003
   3.0411111111111113         -5.7354946620762348E-003
   3.0511111111111111         -7.1900640614330769E-003
   3.0611111111111113         -8.5965991020202637E-003
   3.0711111111111111         -9.9170301109552383E-003
   3.0811111111111114         -1.1114687658846378E-002
   3.0911111111111111         -1.2155693024396896E-002
   3.1011111111111114         -1.3010258786380291E-002
   3.1111111111111112         -1.3653829693794250E-002
   3.1211111111111109         -1.4068022370338440E-002
   3.1311111111111116         -1.4241316355764866E-002
   3.1411111111111114         -1.4169453643262386E-002
   3.1511111111111112         -1.3855541124939919E-002
   3.1611111111111110         -1.3309847563505173E-002
   3.1711111111111117         -1.2549327686429024E-002
   3.1811111111111114         -1.1596909724175930E-002
   3.1911111111111112         -1.0480580851435661E-002
   3.2011111111111110         -9.2323319986462593E-003
   3.2111111111111108         -7.8869890421628952E-003
   3.2211111111111115         -6.4809895120561123E-003
   3.2311111111111113         -5.0511425361037254E-003
   3.2411111111111111         -3.6334046162664890E-003
   3.2511111111111108         -2.2617301438003778E-003
   3.2611111111111115         -9.6700765425339341E-004
   3.2711111111111113          2.2388747311197221E-004
   3.2811111111111111          1.2889156350865960E-003
   3.2911111111111109          2.2115570027381182E-003
   3.3011111111111116          2.9813330620527267E-003
   3.3111111111111113          3.5941309761255980E-003
   3.3211111111111111          4.0522920899093151E-003
   3.3311111111111109          4.3644192628562450E-003
   3.3411111111111116          4.5448751188814640E-003
   3.3511111111111114          4.6129599213600159E-003
   3.3611111111111112          4.5917872339487076E-003
   3.3711111111111109          4.5068953186273575E-003
   3.3811111111111116          4.3846680782735348E-003
   3.3911111111111114          4.2506572790443897E-003
   3.4011111111111112          4.1279224678874016E-003
   3.4111111111111110          4.0355180390179157E-003
   3.4211111111111117          3.9872624911367893E-003
   3.4311111111111114          3.9909048937261105E-003
   3.4411111111111112          4.0477742440998554E-003
   3.4511111111111110          4.1529508307576180E-003
   3.4611111111111117          4.2959363199770451E-003
   3.4711111111111115          4.4617503881454468E-003
   3.4811111111111113          4.6323481947183609E-003
   3.4911111111111111          4.7882171347737312E-003
   3.5011111111111108          4.9100066535174847E-003
   3.5111111111111115          4.9800621345639229E-003
   3.5211111111111113          4.9837366677820683E-003
   3.5311111111111111          4.9103884957730770E-003
   3.5411111111111109          4.7540180385112762E-003
   3.5511111111111116          4.5135258696973324E-003
   3.5611111111111113          4.1926209814846516E-003
   3.5711111111111111          3.7994475569576025E-003
   3.5811111111111109          3.3460010308772326E-003
   3.5911111111111116          2.8474172577261925E-003
   3.6011111111111114          2.3211999796330929E-003
   3.6111111111111112          1.7864346737042069E-003
   3.6211111111111109          1.2630162527784705E-003
   3.6311111111111116          7.7090534614399076E-004
   3.6411111111111114          3.2942014513537288E-004
   3.6511111111111112         -4.3430227378848940E-005
   3.6611111111111110         -3.3156832796521485E-004
   3.6711111111111117         -5.2142172353342175E-004
   3.6811111111111114         -6.0243898769840598E-004
   3.6911111111111112         -5.6753261014819145E-004
   3.7011111111111110         -4.1342488839291036E-004
   3.7111111111111117         -1.4086326700635254E-004
   3.7211111111111115          2.4532797397114336E-004
   3.7311111111111113          7.3638354660943151E-004
   3.7411111111111111          1.3199251843616366E-003
   3.7511111111111108          1.9804637413471937E-003
   3.7611111111111115          2.7000298723578453E-003
   3.7711111111111113          3.4588784910738468E-003
   3.7811111111111111          4.2361966334283352E-003
   3.7911111111111109          5.0107496790587902E-003
   3.8011111111111116          5.7613938115537167E-003
   3.8111111111111113          6.4673991873860359E-003
   3.8211111111111111          7.1085211820900440E-003
   3.8311111111111109          7.6647917740046978E-003
   3.8411111111111116          8.1160124391317368E-003
   3.8511111111111114          8.4409713745117188E-003
   3.8611111111111112          8.6164474487304688E-003
   3.8711111111111109          8.6160842329263687E-003
   3.8811111111111116          8.4092346951365471E-003
   3.8911111111111114          7.9598994925618172E-003
   3.9011111111111112          7.2258519940078259E-003
   3.9111111111111110          6.1580478213727474E-003
   3.9211111111111117          4.7003827057778835E-003
   3.9311111111111114          2.7898517437279224E-003
   3.9411111111111112          3.5711054806597531E-004
   3.9511111111111110         -2.6725912466645241E-003
   3.9611111111111117         -6.3781822100281715E-003
   3.9711111111111115         -1.0841360315680504E-002
   3.9811111111111113         -1.6145156696438789E-002
   3.9911111111111111         -2.2372603416442871E-002
   4.0011111111111113         -2.9605628922581673E-002
   4.0111111111111111         -3.7924282252788544E-002
   4.0211111111111109         -4.7406278550624847E-002
   4.0311111111111106         -5.8126877993345261E-002
   4.0411111111111104         -7.0159003138542175E-002
   4.0511111111111120         -8.3573438227176666E-002
   4.0611111111111118         -9.8439037799835205E-002
   4.0711111111111116        -0.11482252925634384     
   4.0811111111111114        -0.13278794288635254     
   4.0911111111111111        -0.15239521861076355     
   4.1011111111111109        -0.17369785904884338     
   4.1111111111111107        -0.19673959910869598     
   4.1211111111111105        -0.22154983878135681     
   4.1311111111111121        -0.24813799560070038     
   4.1411111111111119        -0.27648693323135376     
   4.1511111111111116        -0.30654543638229370     
   4.1611111111111114        -0.33822017908096313     
   4.1711111111111112        -0.37136757373809814     
   4.1811111111111110        -0.40578556060791016     
   4.1911111111111108        -0.44120621681213379     
   4.2011111111111106        -0.47728911042213440     
   4.2111111111111121        -0.51361650228500366     
   4.2211111111111119        -0.54969054460525513     
   4.2311111111111117        -0.58493256568908691     
   4.2411111111111115        -0.61868554353713989     
   4.2511111111111113        -0.65021938085556030     
   4.2611111111111111        -0.67873924970626831     
   4.2711111111111109        -0.70339769124984741     
   4.2811111111111106        -0.72330915927886963     
   4.2911111111111104        -0.73756837844848633     
   4.3011111111111120        -0.74527078866958618     
   4.3111111111111118        -0.74553567171096802     
   4.3211111111111116        -0.73753100633621216     
   4.3311111111111114        -0.72049909830093384     
   4.3411111111111111        -0.69378274679183960     
   4.3511111111111109        -0.65685075521469116     
   4.3611111111111107        -0.60932224988937378     
   4.3711111111111105        -0.55098921060562134     
   4.3811111111111121        -0.48183596134185791     
   4.3911111111111119        -0.40205487608909607     
   4.4011111111111116        -0.31205776333808899     
   4.4111111111111114        -0.21248219907283783     
   4.4211111111111112        -0.10419217497110367     
   4.4311111111111110          1.1727286502718925E-002
   4.4411111111111108         0.13398161530494690     
   4.4511111111111106         0.26108431816101074     
   4.4611111111111121         0.39138054847717285     
   4.4711111111111119         0.52307641506195068     
   4.4811111111111117         0.65427303314208984     
   4.4911111111111115         0.78300511837005615     
   4.5011111111111113         0.90728229284286499     
   4.5111111111111111          1.0251325368881226     
   4.5211111111111109          1.1346462965011597     
   4.5311111111111106          1.2340202331542969     
   4.5411111111111104          1.3215986490249634     
   4.5511111111111120          1.3959122896194458     