 -0.88888888888888884          0.0000000000000000     
 -0.87888888888888883          0.0000000000000000     
 -0.86888888888888882          0.0000000000000000     
 -0.85888888888888881          0.0000000000000000     
 -0.84888888888888880          2.2010719176879436E-036
 -0.83888888888888880          5.3877068082871317E-033
 -0.82888888888888879          1.4741679227726483E-032
 -0.81888888888888878          1.3697341658267391E-030
 -0.80888888888888888          1.0311536503492248E-029
 -0.79888888888888887          3.4360907342332629E-029
 -0.78888888888888886          5.9839732726236212E-029
 -0.77888888888888885          5.0659510793884947E-029
 -0.76888888888888884          7.8908702143354502E-029
 -0.75888888888888884          5.7101256549430647E-028
 -0.74888888888888883          2.1918448251457315E-027
 -0.73888888888888882          4.6140089160388103E-027
 -0.72888888888888881          4.4627286596511484E-027
 -0.71888888888888880         -4.7905146176520673E-027
 -0.70888888888888890         -2.7147606510267197E-026
 -0.69888888888888889         -5.3519990780807554E-026
 -0.68888888888888888         -5.6928609448460970E-026
 -0.67888888888888888         -7.0911939365481159E-027
 -0.66888888888888887          1.0072248144678997E-025
 -0.65888888888888886          2.4143812770245738E-025
 -0.64888888888888885          4.2105805803578855E-025
 -0.63888888888888884          7.5488870894528208E-025
 -0.62888888888888883          1.3598578541197712E-024
 -0.61888888888888882          1.8214204683721984E-024
 -0.60888888888888881          3.5918252033961408E-025
 -0.59888888888888880         -6.3556460262389768E-024
 -0.58888888888888880         -2.1032784582123576E-023
 -0.57888888888888879         -4.0103634227639045E-023
 -0.56888888888888878         -4.6421065859476853E-023
 -0.55888888888888877         -7.1437034766280210E-024
 -0.54888888888888876          1.1275558736316289E-022
 -0.53888888888888875          3.1436099499992630E-022
 -0.52888888888888885          5.1411481356350392E-022
 -0.51888888888888884          5.1098501738837042E-022
 -0.50888888888888884          2.4319191735048795E-023
 -0.49888888888888883         -1.1508245187888114E-021
 -0.48888888888888882         -2.8765674321800366E-021
 -0.47888888888888881         -4.3973034454418324E-021
 -0.46888888888888886         -4.2677935379243808E-021
 -0.45888888888888885         -7.3661004052053770E-022
 -0.44888888888888884          7.2704797602278284E-021
 -0.43888888888888883          1.8722712946080668E-020
 -0.42888888888888882          2.9204632577253262E-020
 -0.41888888888888881          3.0765160501622833E-020
 -0.40888888888888886          1.3929666585430434E-020
 -0.39888888888888885         -2.7647012709724698E-020
 -0.38888888888888884         -9.0664707851917278E-020
 -0.37888888888888883         -1.5626464114665020E-019
 -0.36888888888888882         -1.8860466306169450E-019
 -0.35888888888888881         -1.4197430765827531E-019
 -0.34888888888888880          2.1481483073567191E-020
 -0.33888888888888880          3.0572569590565761E-019
 -0.32888888888888879          6.5460214734454474E-019
 -0.31888888888888878          9.3863151616839584E-019
 -0.30888888888888888          9.6942548581979025E-019
 -0.29888888888888887          5.5140609265214951E-019
 -0.28888888888888886         -4.3144812757516216E-019
 -0.27888888888888885         -1.9129589776957519E-018
 -0.26888888888888884         -3.5619286395691866E-018
 -0.25888888888888884         -4.7643101061701421E-018
 -0.24888888888888883         -4.7114987599616941E-018
 -0.23888888888888882         -2.6150674000889241E-018
 -0.22888888888888881          1.9680748490907727E-018
 -0.21888888888888880          8.7619792944587875E-018
 -0.20888888888888879          1.6457026293260953E-017
 -0.19888888888888878          2.2595654387386404E-017
 -0.18888888888888877          2.3807771769797109E-017
 -0.17888888888888888          1.6512576434477564E-017
 -0.16888888888888887         -1.8847663876732602E-018
 -0.15888888888888886         -3.1427076321449631E-017
 -0.14888888888888885         -6.8008103281480363E-017
 -0.13888888888888884         -1.0231647136085635E-016
 -0.12888888888888883         -1.2006494827471675E-016
 -0.11888888888888882         -1.0423868028575198E-016
 -0.10888888888888881         -3.9772958125195256E-017
  -9.8888888888888804E-002     7.9637144345787761E-017
  -8.8888888888888795E-002     2.4392611293057006E-016
  -7.8888888888888786E-002     4.2068267196255170E-016
  -6.8888888888888777E-002     5.5399300530572897E-016
  -5.8888888888888768E-002     5.7116929822882928E-016
  -4.8888888888888871E-002     3.9907952015930440E-016
  -3.8888888888888862E-002    -1.0821692934120941E-017
  -2.8888888888888853E-002    -6.5308326051939170E-016
  -1.8888888888888844E-002    -1.4421215559410846E-015
  -8.8888888888888351E-003    -2.1991435941433411E-015
   1.1111111111111738E-003    -2.6618939986126000E-015
   1.1111111111111183E-002    -2.5243106487483208E-015
   2.1111111111111192E-002    -1.5078668768784241E-015
   3.1111111111111200E-002     5.4108586431590873E-016
   4.1111111111111209E-002     3.5426185283768874E-015
   5.1111111111111218E-002     7.0873940261539578E-015
   6.1111111111111227E-002     1.0386752527134172E-014
   7.1111111111111125E-002     1.2307237951740373E-014
   8.1111111111111134E-002     1.1526021158553626E-014
   9.1111111111111143E-002     6.8287317634026495E-015
  0.10111111111111115         -2.4613252787904910E-015
  0.11111111111111116         -1.5984141907201405E-014
  0.12111111111111117         -3.1897133046833448E-014
  0.13111111111111118         -4.6660117718373695E-014
  0.14111111111111119         -5.5250678435581763E-014
  0.15111111111111120         -5.1969882661640626E-014
  0.16111111111111120         -3.1877370074108111E-014
  0.17111111111111121          7.3047079520685738E-015
  0.18111111111111122          6.3222512078006665E-014
  0.19111111111111123          1.2747597844930264E-013
  0.20111111111111124          1.8547464182994827E-013
  0.21111111111111125          2.1816462482046606E-013
  0.22111111111111126          2.0585148982534690E-013
  0.23111111111111127          1.3373221800783153E-013
  0.24111111111111128         -1.9707447598062448E-015
  0.25111111111111128         -1.8899426023743365E-013
  0.26111111111111129         -3.9710454976388254E-013
  0.27111111111111108         -5.8087334855322359E-013
  0.28111111111111109         -6.8775860657607768E-013
  0.29111111111111110         -6.7052093044583927E-013
  0.30111111111111111         -5.0127854341400213E-013
  0.31111111111111112         -1.8318072753098491E-013
  0.32111111111111112          2.4462186833454358E-013
  0.33111111111111113          7.1187885230736270E-013
  0.34111111111111114          1.1325411095053362E-012
  0.35111111111111115          1.4273679894288849E-012
  0.36111111111111116          1.5471915198669861E-012
  0.37111111111111117          1.4880729027472173E-012
  0.38111111111111118          1.2901806359377765E-012
  0.39111111111111119          1.0162306109465225E-012
  0.40111111111111120          7.1238945732049475E-013
  0.41111111111111120          3.6303224966102721E-013
  0.42111111111111121         -1.4207406952293500E-013
  0.43111111111111122         -1.0069181816466100E-012
  0.44111111111111123         -2.4780021784520656E-012
  0.45111111111111124         -4.7387536603049618E-012
  0.46111111111111125         -7.7650958579811302E-012
  0.47111111111111126         -1.1179463604849005E-011
  0.48111111111111127         -1.4157946516546449E-011
  0.49111111111111128         -1.5450753523826855E-011
  0.50111111111111128         -1.3563745612787947E-011
  0.51111111111111129         -7.1160551409765738E-012
  0.52111111111111108          4.6607370740581189E-012
  0.53111111111111109          2.1373255595924512E-011
  0.54111111111111110          4.1007374579349332E-011
  0.55111111111111111          5.9725203949145822E-011
  0.56111111111111112          7.2069454570833358E-011
  0.57111111111111112          7.1664063572285386E-011
  0.58111111111111113          5.2394651117726454E-011
  0.59111111111111114          9.9177671283867674E-012
  0.60111111111111115         -5.6785985635965375E-011
  0.61111111111111116         -1.4419816729560608E-010
  0.62111111111111117         -2.4380364394005483E-010
  0.63111111111111118         -3.4273650584282223E-010
  0.64111111111111119         -4.2571771108335099E-010
  0.65111111111111120         -4.7822829030153002E-010
  0.66111111111111120         -4.9056075868136872E-010
  0.67111111111111121         -4.6210651971634320E-010
  0.68111111111111122         -4.0500311437874359E-010
  0.69111111111111123         -3.4615499355794555E-010
  0.70111111111111124         -3.2670313676597118E-010
  0.71111111111111125         -3.9818193187102224E-010
  0.72111111111111126         -6.1491900460453053E-010
  0.73111111111111127         -1.0225749136338891E-009
  0.74111111111111128         -1.6429811955376294E-009
  0.75111111111111128         -2.4554362987316836E-009
  0.76111111111111129         -3.3743356997462115E-009
  0.77111111111111130         -4.2224734819740206E-009
  0.78111111111111109         -4.6979664602986304E-009
  0.79111111111111110         -4.3315284692369005E-009
  0.80111111111111111         -2.4278687948964262E-009
  0.81111111111111112          2.0179178328305625E-009
  0.82111111111111112          1.0442430919965773E-008
  0.83111111111111113          2.4891861016840267E-008
  0.84111111111111114          4.8280430320346568E-008
  0.85111111111111115          8.4759228968778189E-008
  0.86111111111111116          1.4023551386799227E-007
  0.87111111111111117          2.2309032488010416E-007
  0.88111111111111118          3.4515380775701487E-007
  0.89111111111111119          5.2301032837931416E-007
  0.90111111111111120          7.7972504186618607E-007
  0.91111111111111120          1.1470953040770837E-006
  0.92111111111111121          1.6685571608832106E-006
  0.93111111111111122          2.4029066025832435E-006
  0.94111111111111123          3.4290205803699791E-006
  0.95111111111111124          4.8517872528464068E-006
  0.96111111111111125          6.8095068854745477E-006
  0.97111111111111126          9.4830456873751245E-006
  0.98111111111111127          1.3107075574225746E-005
  0.99111111111111128          1.7983729776460677E-005
   1.0011111111111113          2.4499051505699754E-005
   1.0111111111111113          3.3142554457299411E-005
   1.0211111111111113          4.4530239392770454E-005
   1.0311111111111111          5.9431222325656563E-005
   1.0411111111111111          7.8798104368615896E-005
   1.0511111111111111          1.0380089952377602E-004
   1.0611111111111111          1.3586421846412122E-004
   1.0711111111111111          1.7670681700110435E-004
   1.0811111111111111          2.2838239965494722E-004
   1.0911111111111111          2.9332013218663633E-004
   1.1011111111111112          3.7436216371133924E-004
   1.1111111111111112          4.7479587374255061E-004
   1.1211111111111114          5.9837650042027235E-004
   1.1311111111111112          7.4933673022314906E-004
   1.1411111111111114          9.3237753026187420E-004
   1.1511111111111112          1.1526363668963313E-003
   1.1611111111111110          1.4156252145767212E-003
   1.1711111111111112          1.7271355027332902E-003
   1.1811111111111110          2.0931020844727755E-003
   1.1911111111111112          2.5194247718900442E-003
   1.2011111111111110          3.0117407441139221E-003
   1.2111111111111112          3.5751513205468655E-003
   1.2211111111111110          4.2138989083468914E-003
   1.2311111111111113          4.9310028553009033E-003
   1.2411111111111111          5.7278578169643879E-003
   1.2511111111111113          6.6038067452609539E-003
   1.2611111111111111          7.5557040981948376E-003
   1.2711111111111113          8.5774865001440048E-003
   1.2811111111111111          9.6597727388143539E-003
   1.2911111111111113          1.0789518244564533E-002
   1.3011111111111111          1.1949751526117325E-002
   1.3111111111111113          1.3119419105350971E-002
   1.3211111111111111          1.4273365959525108E-002
   1.3311111111111114          1.5382478944957256E-002
   1.3411111111111111          1.6414009034633636E-002
   1.3511111111111114          1.7332095652818680E-002
   1.3611111111111112          1.8098482862114906E-002
   1.3711111111111114          1.8673453480005264E-002
   1.3811111111111112          1.9016943871974945E-002
   1.3911111111111114          1.9089818000793457E-002
   1.4011111111111112          1.8855288624763489E-002
   1.4111111111111114          1.8280405551195145E-002
   1.4211111111111112          1.7337592318654060E-002
   1.4311111111111110          1.6006132587790489E-002
   1.4411111111111112          1.4273569919168949E-002
   1.4511111111111110          1.2136932462453842E-002
   1.4611111111111112          9.6037201583385468E-003
   1.4711111111111110          6.6925967112183571E-003
   1.4811111111111113          3.4337290562689304E-003
   1.4911111111111111         -1.3126722478773445E-004
   1.5011111111111113         -3.9497949182987213E-003
   1.5111111111111111         -7.9591628164052963E-003
   1.5211111111111113         -1.2087890878319740E-002
   1.5311111111111111         -1.6257388517260551E-002
   1.5411111111111113         -2.0383965224027634E-002
   1.5511111111111111         -2.4381104856729507E-002
   1.5611111111111113         -2.8161928057670593E-002
   1.5711111111111111         -3.1641747802495956E-002
   1.5811111111111114         -3.4740611910820007E-002
   1.5911111111111111         -3.7385784089565277E-002
   1.6011111111111114         -3.9513986557722092E-002
   1.6111111111111112         -4.1073407977819443E-002
   1.6211111111111114         -4.2025331407785416E-002
   1.6311111111111112         -4.2345363646745682E-002
   1.6411111111111114         -4.2024198919534683E-002
   1.6511111111111112         -4.1067935526371002E-002
   1.6611111111111114         -3.9497859776020050E-002
   1.6711111111111112         -3.7349794059991837E-002
   1.6811111111111110         -3.4672994166612625E-002
   1.6911111111111112         -3.1528633087873459E-002
   1.7011111111111110         -2.7987962588667870E-002
   1.7111111111111112         -2.4130206555128098E-002
   1.7211111111111110         -2.0040243864059448E-002
   1.7311111111111113         -1.5806175768375397E-002
   1.7411111111111111         -1.1516858823597431E-002
   1.7511111111111113         -7.2594787925481796E-003
   1.7611111111111111         -3.1172316521406174E-003
   1.7711111111111113          8.3280552644282579E-004
   1.7811111111111111          4.5215645805001259E-003
   1.7911111111111113          7.8895809128880501E-003
   1.8011111111111111          1.0888255201280117E-002
   1.8111111111111113          1.3480750843882561E-002
   1.8211111111111111          1.5642514452338219E-002
   1.8311111111111114          1.7361406236886978E-002
   1.8411111111111111          1.8637454137206078E-002
   1.8511111111111114          1.9482251256704330E-002
   1.8611111111111112          1.9918013364076614E-002
   1.8711111111111114          1.9976349547505379E-002
   1.8811111111111112          1.9696786999702454E-002
   1.8911111111111114          1.9125103950500488E-002
   1.9011111111111112          1.8311541527509689E-002
   1.9111111111111114          1.7308935523033142E-002
   1.9211111111111112          1.6170859336853027E-002
   1.9311111111111110          1.4949824661016464E-002
   1.9411111111111112          1.3695601373910904E-002
   1.9511111111111110          1.2453720904886723E-002
   1.9611111111111112          1.1264202184975147E-002
   1.9711111111111110          1.0160539299249649E-002
   1.9811111111111113          9.1689787805080414E-003
   1.9911111111111111          8.3080949261784554E-003
   2.0011111111111113          7.5886733829975128E-003
   2.0111111111111111          7.0138815790414810E-003
   2.0211111111111113          6.5797185525298119E-003
   2.0311111111111111          6.2757036648690701E-003
   2.0411111111111113          6.0857697390019894E-003
   2.0511111111111111          5.9893154539167881E-003
   2.0611111111111113          5.9623694978654385E-003
   2.0711111111111111          5.9788199141621590E-003
   2.0811111111111114          6.0116555541753769E-003
   2.0911111111111111          6.0341791249811649E-003
   2.1011111111111114          6.0211461968719959E-003
   2.1111111111111112          5.9497961774468422E-003
   2.1211111111111114          5.8007398620247841E-003
   2.1311111111111112          5.5586816743016243E-003
   2.1411111111111114          5.2129551768302917E-003
   2.1511111111111112          4.7578578814864159E-003
   2.1611111111111114          4.1927821002900600E-003
   2.1711111111111112          3.5221381112933159E-003
   2.1811111111111114          2.7550801169127226E-003
   2.1911111111111112          1.9050490809604526E-003
   2.2011111111111110          9.8915421403944492E-004
   2.2111111111111112          2.7418605895945802E-005
   2.2211111111111110         -9.5807405887171626E-004
   2.2311111111111113         -1.9440947799012065E-003
   2.2411111111111111         -2.9072049073874950E-003
   2.2511111111111113         -3.8246668409556150E-003
   2.2611111111111111         -4.6752914786338806E-003
   2.2711111111111113         -5.4401811212301254E-003
   2.2811111111111111         -6.1033433303236961E-003
   2.2911111111111113         -6.6521489061415195E-003
   2.3011111111111111         -7.0776250213384628E-003
   2.3111111111111113         -7.3745842091739178E-003
   2.3211111111111111         -7.5415982864797115E-003
   2.3311111111111114         -7.5808297842741013E-003
   2.3411111111111111         -7.4977511540055275E-003
   2.3511111111111114         -7.3007722385227680E-003
   2.3611111111111112         -7.0008030161261559E-003
   2.3711111111111114         -6.6107735037803650E-003
   2.3811111111111112         -6.1451257206499577E-003
   2.3911111111111114         -5.6192949414253235E-003
   2.4011111111111112         -5.0491825677454472E-003
   2.4111111111111114         -4.4506327249109745E-003
   2.4211111111111112         -3.8389156106859446E-003
   2.4311111111111114         -3.2282317988574505E-003
   2.4411111111111112         -2.6312528643757105E-003
   2.4511111111111110         -2.0587197504937649E-003
   2.4611111111111112         -1.5191256534308195E-003
   2.4711111111111110         -1.0185090359300375E-003
   2.4811111111111113         -5.6038238108158112E-004
   2.4911111111111111         -1.4581254799850285E-004
   2.5011111111111113          2.2634463675785810E-004
   2.5111111111111111          5.5906618945300579E-004
   2.5211111111111113          8.5666868835687637E-004
   2.5311111111111111          1.1242425534874201E-003
   2.5411111111111113          1.3670674525201321E-003
   2.5511111111111111          1.5900637954473495E-003
   2.5611111111111113          1.7973330104723573E-003
   2.5711111111111111          1.9918256439268589E-003
   2.5811111111111114          2.1751585882157087E-003
   2.5911111111111111          2.3475850466638803E-003
   2.6011111111111114          2.5080956984311342E-003
   2.6111111111111112          2.6546223089098930E-003
   2.6211111111111114          2.7842975687235594E-003
   2.6311111111111112          2.8937319293618202E-003
   2.6411111111111114          2.9792713467031717E-003
   2.6511111111111112          3.0372149776667356E-003
   2.6611111111111114          3.0639884062111378E-003
   2.6711111111111112          3.0562842730432749E-003
   2.6811111111111114          3.0111921951174736E-003
   2.6911111111111112          2.9263456817716360E-003
   2.7011111111111110          2.8001065365970135E-003
   2.7111111111111112          2.6317972224205732E-003
   2.7211111111111110          2.4219725746661425E-003
   2.7311111111111113          2.1727026905864477E-003
   2.7411111111111111          1.8878236878663301E-003
   2.7511111111111113          1.5731059247627854E-003
   2.7611111111111111          1.2362870620563626E-003
   2.7711111111111113          8.8693271391093731E-004
   2.7811111111111111          5.3610594477504492E-004
   2.7911111111111113          1.9585331028793007E-004
   2.8011111111111111         -1.2145681102992967E-004
   2.8111111111111113         -4.0388561319559813E-004
   2.8211111111111111         -6.4069090876728296E-004
   2.8311111111111114         -8.2303263479843736E-004
   2.8411111111111111         -9.4454619102180004E-004
   2.8511111111111114         -1.0017326567322016E-003
   2.8611111111111112         -9.9413807038217783E-004
   2.8711111111111114         -9.2432170640677214E-004
   2.8811111111111112         -7.9763768007978797E-004
   2.8911111111111114         -6.2187033472582698E-004
   2.9011111111111112         -4.0677268407307565E-004
   2.9111111111111114         -1.6355562547687441E-004
   2.9211111111111112          9.5633084129076451E-005
   2.9311111111111114          3.5821442725136876E-004
   2.9411111111111112          6.1165634542703629E-004
   2.9511111111111110          8.4392382996156812E-004
   2.9611111111111112          1.0439056204631925E-003
   2.9711111111111110          1.2018220731988549E-003
   2.9811111111111113          1.3096126494929194E-003
   2.9911111111111111          1.3612919719889760E-003
   3.0011111111111113          1.3532545417547226E-003
   3.0111111111111111          1.2845001183450222E-003
   3.0211111111111113          1.1567504843696952E-003
   3.0311111111111111          9.7443239064887166E-004
   3.0411111111111113          7.4451131513342261E-004
   3.0511111111111111          4.7617615200579166E-004
   3.0611111111111113          1.8038913549389690E-004
   3.0711111111111111         -1.3067031977698207E-004
   3.0811111111111114         -4.4422960490919650E-004
   3.0911111111111111         -7.4757245602086186E-004
   3.1011111111111114         -1.0286729084327817E-003
   3.1111111111111112         -1.2767786392942071E-003
   3.1211111111111109         -1.4829157153144479E-003
   3.1311111111111116         -1.6402957262471318E-003
   3.1411111111111114         -1.7446143319830298E-003
   3.1511111111111112         -1.7942345002666116E-003
   3.1611111111111110         -1.7902507679536939E-003
   3.1711111111111117         -1.7364340601488948E-003
   3.1811111111111114         -1.6390567179769278E-003
   3.1911111111111112         -1.5066008782014251E-003
   3.2011111111111110         -1.3493569567799568E-003
   3.2111111111111108         -1.1789267882704735E-003
   3.2211111111111115         -1.0076512116938829E-003
   3.2311111111111113         -8.4799039177596569E-004
   3.2411111111111111         -7.1188877336680889E-004
   3.2511111111111108         -6.1015808023512363E-004
   3.2611111111111115         -5.5190717102959752E-004
   3.2711111111111113         -5.4404116235673428E-004
   3.2811111111111111         -5.9084297390654683E-004
   3.2911111111111109         -6.9364305818453431E-004
   3.3011111111111116         -8.5057778051123023E-004
   3.3111111111111113         -1.0564390104264021E-003
   3.3211111111111111         -1.3026224914938211E-003
   3.3311111111111109         -1.5771931502968073E-003
   3.3411111111111116         -1.8650944111868739E-003
   3.3511111111111114         -2.1485367324203253E-003
   3.3611111111111112         -2.4075990077108145E-003
   3.3711111111111109         -2.6210651267319918E-003
   3.3811111111111116         -2.7674967423081398E-003
   3.3911111111111114         -2.8265095315873623E-003
   3.4011111111111112         -2.7801867108792067E-003
   3.4111111111111110         -2.6145214214920998E-003
   3.4211111111111117         -2.3207582999020815E-003
   3.4311111111111114         -1.8964890623465180E-003
   3.4411111111111112         -1.3463631039485335E-003
   3.4511111111111110         -6.8230758188292384E-004
   3.4611111111111117          7.6803044066764414E-005
   3.4711111111111115          9.0603000717237592E-004
   3.4811111111111113          1.7757406458258629E-003
   3.4911111111111111          2.6533487252891064E-003
   3.5011111111111108          3.5052653402090073E-003
   3.5111111111111115          4.2988820932805538E-003
   3.5211111111111113          5.0044176168739796E-003
   3.5311111111111111          5.5964807979762554E-003
   3.5411111111111109          6.0552530921995640E-003
   3.5511111111111116          6.3672391697764397E-003
   3.5611111111111113          6.5255910158157349E-003
   3.5711111111111111          6.5300427377223969E-003
   3.5811111111111109          6.3865236006677151E-003
   3.5911111111111116          6.1065233312547207E-003
   3.6011111111111114          5.7062758132815361E-003
   3.6111111111111112          5.2058082073926926E-003
   3.6211111111111109          4.6278955414891243E-003
   3.6311111111111116          3.9969333447515965E-003
   3.6411111111111114          3.3377504441887140E-003
   3.6511111111111112          2.6743940543383360E-003
   3.6611111111111110          2.0289327949285507E-003
   3.6711111111111117          1.4203502796590328E-003
   3.6811111111111114          8.6362118599936366E-004
   3.6911111111111112          3.6906648892909288E-004
   3.7011111111111110         -5.7922305131796747E-005
   3.7111111111111117         -4.1673143277876079E-004
   3.7211111111111115         -7.1093253791332245E-004
   3.7311111111111113         -9.4729365082457662E-004
   3.7411111111111111         -1.1344966478645802E-003
   3.7511111111111108         -1.2817133683711290E-003
   3.7611111111111115         -1.3972222805023193E-003
   3.7711111111111113         -1.4872484607622027E-003
   3.7811111111111111         -1.5551865799352527E-003
   3.7911111111111109         -1.6013111453503370E-003
   3.8011111111111116         -1.6230074688792229E-003
   3.8111111111111113         -1.6154827317222953E-003
   3.8211111111111111         -1.5728420112282038E-003
   3.8311111111111109         -1.4893644256517291E-003
   3.8411111111111116         -1.3607863802462816E-003
   3.8511111111111114         -1.1854026233777404E-003
   3.8611111111111112         -9.6482812659814954E-004
   3.8711111111111109         -7.0431554922834039E-004
   3.8811111111111116         -4.1259091813117266E-004
   3.8911111111111114         -1.0123519314220175E-004
   3.9011111111111112          2.1629934781230986E-004
   3.9111111111111110          5.2590871928259730E-004
   3.9211111111111117          8.1414065789431334E-004
   3.9311111111111114          1.0694321244955063E-003
   3.9411111111111112          1.2831485364586115E-003
   3.9511111111111110          1.4503257116302848E-003
   3.9611111111111117          1.5700531657785177E-003
   3.9711111111111115          1.6454777214676142E-003
   3.9811111111111113          1.6834387788549066E-003
   3.9911111111111111          1.6937776235863566E-003
   4.0011111111111113          1.6883803764358163E-003
   4.0111111111111111          1.6800314188003540E-003
   4.0211111111111109          1.6811621608212590E-003
   4.0311111111111106          1.7025857232511044E-003
   4.0411111111111104          1.7523099668323994E-003
   4.0511111111111120          1.8345199059695005E-003
   4.0611111111111118          1.9488135585561395E-003
   4.0711111111111116          2.0897644571959972E-003
   4.0811111111111114          2.2468627430498600E-003
   4.0911111111111111          2.4048676714301109E-003
   4.1011111111111109          2.5445662904530764E-003
   4.1111111111111107          2.6439079083502293E-003
   4.1211111111111105          2.6794453151524067E-003
   4.1311111111111121          2.6279862504452467E-003
   4.1411111111111119          2.4683354422450066E-003
   4.1511111111111116          2.1829982288181782E-003
   4.1611111111111114          1.7597097903490067E-003
   4.1711111111111112          1.1926721781492233E-003
   4.1811111111111110          4.8339684144593775E-004
   4.1911111111111108         -3.5891897277906537E-004
   4.2011111111111106         -1.3175199273973703E-003
   4.2111111111111121         -2.3687253706157207E-003
   4.2211111111111119         -3.4830328077077866E-003
   4.2311111111111117         -4.6266200952231884E-003
   4.2411111111111115         -5.7631474919617176E-003
   4.2511111111111113         -6.8557341583073139E-003
   4.2611111111111111         -7.8689744696021080E-003
   4.2711111111111109         -8.7708532810211182E-003
   4.2811111111111106         -9.5344353467226028E-003
   4.2911111111111104         -1.0139224119484425E-002
   4.3011111111111120         -1.0572121478617191E-002
   4.3111111111111118         -1.0827954858541489E-002
   4.3211111111111116         -1.0909588076174259E-002
   4.3311111111111114         -1.0827662423253059E-002
   4.3411111111111111         -1.0600045323371887E-002
   4.3511111111111109         -1.0251078754663467E-002
   4.3611111111111107         -9.8107093945145607E-003
   4.3711111111111105         -9.3135721981525421E-003
   4.3811111111111121         -8.7980618700385094E-003
   4.3911111111111119         -8.3053968846797943E-003
   4.4011111111111116         -7.8786406666040421E-003
   4.4111111111111114         -7.5616408139467239E-003
   4.4211111111111112         -7.3978281579911709E-003
   4.4311111111111110         -7.4288416653871536E-003
   4.4411111111111108         -7.6929870992898941E-003
   4.4511111111111106         -8.2235680893063545E-003
   4.4611111111111121         -9.0471897274255753E-003
   4.4711111111111119         -1.0182154364883900E-002
   4.4811111111111117         -1.1637107469141483E-002
   4.4911111111111115         -1.3410067185759544E-002
   4.5011111111111113         -1.5487960539758205E-002
   4.5111111111111111         -1.7846725881099701E-002
   4.5211111111111109         -2.0451979711651802E-002
   4.5311111111111106         -2.3260205984115601E-002
   4.5411111111111104         -2.6220330968499184E-002
   4.5511111111111120         -2.9275575652718544E-002