 -0.88888888888888884          0.0000000000000000     
 -0.87888888888888883          0.0000000000000000     
 -0.86888888888888882          0.0000000000000000     
 -0.85888888888888881          0.0000000000000000     
 -0.84888888888888880          0.0000000000000000     
 -0.83888888888888880          0.0000000000000000     
 -0.82888888888888879          6.4662130667051119E-037
 -0.81888888888888878          2.3345285664906975E-034
 -0.80888888888888888          8.0542439277694953E-034
 -0.79888888888888887          2.9396299874463130E-033
 -0.78888888888888886          3.2610822889269081E-032
 -0.77888888888888885          1.9441914842261303E-031
 -0.76888888888888884          6.0282265536156943E-031
 -0.75888888888888884          8.7861403664640835E-031
 -0.74888888888888883         -4.8535541084435017E-031
 -0.73888888888888882         -4.7912277052510388E-030
 -0.72888888888888881         -7.3669942485807555E-030
 -0.71888888888888880          8.4449680834260570E-030
 -0.70888888888888890          5.9871636959471202E-029
 -0.69888888888888889          1.1722967052614971E-028
 -0.68888888888888888          4.5551965646228764E-029
 -0.67888888888888888         -3.5381803083547199E-028
 -0.66888888888888887         -1.0621788680927375E-027
 -0.65888888888888886         -1.3798024641491027E-027
 -0.64888888888888885          2.0645095113118903E-028
 -0.63888888888888884          4.9609355361990273E-027
 -0.62888888888888883          1.1294855744544026E-026
 -0.61888888888888882          1.2146053609461009E-026
 -0.60888888888888881         -3.7610041436480039E-027
 -0.59888888888888880         -4.2704227058113363E-026
 -0.58888888888888880         -8.9797953526788428E-026
 -0.57888888888888879         -9.7053353791138955E-026
 -0.56888888888888878          4.3635528971649277E-027
 -0.55888888888888877          2.5202506013287926E-025
 -0.54888888888888876          5.7086402583622967E-025
 -0.53888888888888875          7.1513790932358215E-025
 -0.52888888888888885          3.1670911521496355E-025
 -0.51888888888888884         -8.9807968362499242E-025
 -0.50888888888888884         -2.7563139238611398E-024
 -0.49888888888888883         -4.3314900801620152E-024
 -0.48888888888888882         -3.9766225796701534E-024
 -0.47888888888888881          3.8903328816411333E-026
 -0.46888888888888886          8.2784948771456457E-024
 -0.45888888888888885          1.8699294581434562E-023
 -0.44888888888888884          2.5880880736453106E-023
 -0.43888888888888883          2.1914784716702222E-023
 -0.42888888888888882         -4.5856701357246352E-025
 -0.41888888888888881         -4.2871702967848883E-023
 -0.40888888888888886         -9.6214884431120795E-023
 -0.39888888888888885         -1.3811313619737057E-022
 -0.38888888888888884         -1.3581286828484403E-022
 -0.37888888888888883         -5.6035901365258660E-023
 -0.36888888888888882          1.1909590858302659E-022
 -0.35888888888888881          3.7382946997751677E-022
 -0.34888888888888880          6.4420269737810561E-022
 -0.33888888888888880          8.1385893543083044E-022
 -0.32888888888888879          7.2649444557845246E-022
 -0.31888888888888878          2.2029093501768005E-022
 -0.30888888888888888         -8.1115212016218920E-022
 -0.29888888888888887         -2.3295096357532094E-021
 -0.28888888888888886         -4.0417111016849301E-021
 -0.27888888888888885         -5.2996419792571122E-021
 -0.26888888888888884         -5.0772269258115979E-021
 -0.25888888888888884         -2.1313665575621228E-021
 -0.24888888888888883          4.5394197793650482E-021
 -0.23888888888888882          1.4896091421879400E-020
 -0.22888888888888881          2.6864302748619199E-020
 -0.21888888888888880          3.5575509800477058E-020
 -0.20888888888888879          3.3555550900493903E-020
 -0.19888888888888878          1.2636178250628409E-020
 -0.18888888888888877         -3.2033134676612859E-020
 -0.17888888888888888         -9.6494560486917376E-020
 -0.16888888888888887         -1.6307440553949300E-019
 -0.15888888888888886         -1.9941458242396424E-019
 -0.14888888888888885         -1.6499637261745703E-019
 -0.13888888888888884         -2.6867335205669515E-020
 -0.12888888888888883          2.1790036305451102E-019
 -0.11888888888888882          5.2103543267922911E-019
 -0.10888888888888881          7.7560983046825603E-019
  -9.8888888888888804E-002     8.3466359856691207E-019
  -8.8888888888888795E-002     5.6106673502615632E-019
  -7.8888888888888786E-002    -1.0046459444982003E-019
  -6.8888888888888777E-002    -1.0551621359254522E-018
  -5.8888888888888768E-002    -2.0310139879241669E-018
  -4.8888888888888871E-002    -2.6261257709029924E-018
  -3.8888888888888862E-002    -2.4404001487373799E-018
  -2.8888888888888853E-002    -1.2612393996895896E-018
  -1.8888888888888844E-002     7.6854203742308497E-019
  -8.8888888888888351E-003     3.0931935105762126E-018
   1.1111111111111738E-003     4.8693550129291699E-018
   1.1111111111111183E-002     5.2796175716013829E-018
   2.1111111111111192E-002     3.9428171875090291E-018
   3.1111111111111200E-002     1.2427638037203349E-018
   4.1111111111111209E-002    -1.6298670629998648E-018
   5.1111111111111218E-002    -3.0582155579889484E-018
   6.1111111111111227E-002    -1.7722646544872200E-018
   7.1111111111111125E-002     2.2292331392666271E-018
   8.1111111111111134E-002     7.0228469458170728E-018
   9.1111111111111143E-002     8.8183557891073391E-018
  0.10111111111111115          3.0130961642966310E-018
  0.11111111111111116         -1.3821357546426089E-017
  0.12111111111111117         -4.1510682612434406E-017
  0.13111111111111118         -7.4245488468938520E-017
  0.14111111111111119         -9.9899906214674536E-017
  0.15111111111111120         -1.0146470032305335E-016
  0.16111111111111120         -6.0896269072545448E-017
  0.17111111111111121          3.4919694256722080E-017
  0.18111111111111122          1.8698392600470569E-016
  0.19111111111111123          3.7717487756639377E-016
  0.20111111111111124          5.6325520470483633E-016
  0.21111111111111125          6.7819836974063294E-016
  0.22111111111111126          6.3658602332219332E-016
  0.23111111111111127          3.5090748589953146E-016
  0.24111111111111128         -2.4042037591078251E-016
  0.25111111111111128         -1.1344844834542431E-015
  0.26111111111111129         -2.2213995965906846E-015
  0.27111111111111108         -3.2518850571436895E-015
  0.28111111111111109         -3.8356561409848538E-015
  0.29111111111111110         -3.4936252956747514E-015
  0.30111111111111111         -1.7798478856923591E-015
  0.31111111111111112          1.5304597866805381E-015
  0.32111111111111112          6.2217657410921102E-015
  0.33111111111111113          1.1458606653314603E-014
  0.34111111111111114          1.5742608768225946E-014
  0.35111111111111115          1.7102767498663324E-014
  0.36111111111111116          1.3573066858006775E-014
  0.37111111111111117          3.9222284139084004E-015
  0.38111111111111118         -1.1521772441290198E-014
  0.39111111111111119         -3.0229704644450101E-014
  0.40111111111111120         -4.7354434013369834E-014
  0.41111111111111120         -5.6439479012657806E-014
  0.42111111111111121         -5.1066715146905889E-014
  0.43111111111111122         -2.7237432009266302E-014
  0.44111111111111123          1.4103693188913073E-014
  0.45111111111111124          6.5315950619013879E-014
  0.46111111111111125          1.1210064316700616E-013
  0.47111111111111126          1.3609866543213417E-013
  0.48111111111111127          1.2015429341587225E-013
  0.49111111111111128          5.5363167799108923E-014
  0.50111111111111128         -5.2046623846661866E-014
  0.51111111111111129         -1.7671951955174764E-013
  0.52111111111111108         -2.7583266074861224E-013
  0.53111111111111109         -2.9819763737275184E-013
  0.54111111111111110         -2.0052935820105006E-013
  0.55111111111111111          3.2194319638575303E-014
  0.56111111111111112          3.6815892673867923E-013
  0.57111111111111112          7.1957630826124941E-013
  0.58111111111111113          9.5034418702566459E-013
  0.59111111111111114          9.0481902569397588E-013
  0.60111111111111115          4.5626100553947113E-013
  0.61111111111111116         -4.3398062378983970E-013
  0.62111111111111117         -1.6627409085007150E-012
  0.63111111111111118         -2.9574829998185725E-012
  0.64111111111111119         -3.8948662003934764E-012
  0.65111111111111120         -3.9777517217565173E-012
  0.66111111111111120         -2.7685252094317159E-012
  0.67111111111111121         -5.7693819611060598E-014
  0.68111111111111122          3.9721754531429898E-012
  0.69111111111111123          8.6400331333891245E-012
  0.70111111111111124          1.2771271887257463E-011
  0.71111111111111125          1.4852726687442086E-011
  0.72111111111111126          1.3344695140582452E-011
  0.73111111111111127          7.1127036552209866E-012
  0.74111111111111128         -4.1054690029518337E-012
  0.75111111111111128         -1.9319974439713228E-011
  0.76111111111111129         -3.6133707137508964E-011
  0.77111111111111130         -5.0930551442895933E-011
  0.78111111111111109         -5.9470754709689544E-011
  0.79111111111111110         -5.7869226771645188E-011
  0.80111111111111111         -4.3826938606050803E-011
  0.81111111111111112         -1.7886431918912038E-011
  0.82111111111111112          1.5585081836189119E-011
  0.83111111111111113          4.7992405188823639E-011
  0.84111111111111114          6.6930280762100836E-011
  0.85111111111111115          5.7529581792836737E-011
  0.86111111111111116          4.6409907167310749E-012
  0.87111111111111117         -1.0444718007152076E-010
  0.88111111111111118         -2.7724941786821944E-010
  0.89111111111111119         -5.1388354682657678E-010
  0.90111111111111120         -8.0602374774585428E-010
  0.91111111111111120         -1.1374426955867989E-009
  0.92111111111111121         -1.4862213681965386E-009
  0.93111111111111122         -1.8282658720281120E-009
  0.94111111111111123         -2.1412223105699013E-009
  0.95111111111111124         -2.4072570603550503E-009
  0.96111111111111125         -2.6126689700589623E-009
  0.97111111111111126         -2.7415978376410521E-009
  0.98111111111111127         -2.7606974484228886E-009
  0.99111111111111128         -2.5910944501106314E-009
   1.0011111111111113         -2.0634016717480108E-009
   1.0111111111111113         -8.5082796363877833E-010
   1.0211111111111113          1.6257711843437050E-009
   1.0311111111111111          6.3290221952172487E-009
   1.0411111111111111          1.4782834512061527E-008
   1.0511111111111111          2.9311163274314822E-008
   1.0611111111111111          5.3358380824874985E-008
   1.0711111111111111          9.1918671785151673E-008
   1.0811111111111111          1.5211153936434130E-007
   1.0911111111111111          2.4395205855398672E-007
   1.1011111111111112          3.8137935121085320E-007
   1.1111111111111112          5.8362610388940084E-007
   1.1211111111111114          8.7703330109434319E-007
   1.1311111111111112          1.2974415994904120E-006
   1.1411111111111114          1.8933106957774726E-006
   1.1511111111111112          2.7297553515381878E-006
   1.1611111111111110          3.8937137105676811E-006
   1.1711111111111112          5.5004943533276673E-006
   1.1811111111111110          7.7019940363243222E-006
   1.1911111111111112          1.0696874596760608E-005
   1.2011111111111110          1.4743040992470924E-005
   1.2111111111111112          2.0172754375380464E-005
   1.2211111111111110          2.7410700567997992E-005
   1.2311111111111113          3.6995326809119433E-005
   1.2411111111111111          4.9603626393945888E-005
   1.2511111111111113          6.6079584939870983E-005
   1.2611111111111111          8.7466229160781950E-005
   1.2711111111111113          1.1504098802106455E-004
   1.2811111111111111          1.5035395335871726E-004
   1.2911111111111113          1.9526797404978424E-004
   1.3011111111111111          2.5199941592290998E-004
   1.3111111111111113          3.2315764110535383E-004
   1.3211111111111111          4.1178055107593536E-004
   1.3311111111111114          5.2136339945718646E-004
   1.3411111111111111          6.5587676363065839E-004
   1.3511111111111114          8.1976951332762837E-004
   1.3611111111111112          1.0179511737078428E-003
   1.3711111111111114          1.2557489098981023E-003
   1.3811111111111112          1.5388329047709703E-003
   1.3911111111111114          1.8731050658971071E-003
   1.4011111111111112          2.2645457647740841E-003
   1.4111111111111114          2.7190144173800945E-003
   1.4211111111111112          3.2420014031231403E-003
   1.4311111111111110          3.8383309729397297E-003
   1.4411111111111112          4.5118173584342003E-003
   1.4511111111111110          5.2648782730102539E-003
   1.4611111111111112          6.0981176793575287E-003
   1.4711111111111110          7.0098834112286568E-003
   1.4811111111111113          7.9958271235227585E-003
   1.4911111111111111          9.0484758839011192E-003
   1.5011111111111113          1.0156846605241299E-002
   1.5111111111111111          1.1306132189929485E-002
   1.5211111111111113          1.2477475218474865E-002
   1.5311111111111111          1.3647871091961861E-002
   1.5411111111111113          1.4790220186114311E-002
   1.5511111111111111          1.5873553231358528E-002
   1.5611111111111113          1.6863450407981873E-002
   1.5711111111111111          1.7722656950354576E-002
   1.5811111111111114          1.8411921337246895E-002
   1.5911111111111111          1.8891017884016037E-002
   1.6011111111111114          1.9119957461953163E-002
   1.6111111111111112          1.9060341641306877E-002
   1.6211111111111114          1.8676839768886566E-002
   1.6311111111111112          1.7938708886504173E-002
   1.6411111111111114          1.6821322962641716E-002
   1.6511111111111112          1.5307632274925709E-002
   1.6611111111111114          1.3389481231570244E-002
   1.6711111111111112          1.1068727821111679E-002
   1.6811111111111110          8.3580929785966873E-003
   1.6911111111111112          5.2816746756434441E-003
   1.7011111111111110          1.8750971648842096E-003
   1.7111111111111112         -1.8147496739402413E-003
   1.7211111111111110         -5.7303900830447674E-003
   1.7311111111111113         -9.8048569634556770E-003
   1.7411111111111111         -1.3963183388113976E-002
   1.7511111111111113         -1.8124241381883621E-002
   1.7611111111111111         -2.2202886641025543E-002
   1.7711111111111113         -2.6112310588359833E-002
   1.7811111111111111         -2.9766544699668884E-002
   1.7911111111111113         -3.3082999289035797E-002
   1.8011111111111111         -3.5984959453344345E-002
   1.8111111111111113         -3.8403943181037903E-002
   1.8211111111111111         -4.0281824767589569E-002
   1.8311111111111114         -4.1572645306587219E-002
   1.8411111111111111         -4.2244061827659607E-002
   1.8511111111111114         -4.2278360575437546E-002
   1.8611111111111112         -4.1673008352518082E-002
   1.8711111111111114         -4.0440753102302551E-002
   1.8811111111111112         -3.8609225302934647E-002
   1.8911111111111114         -3.6220103502273560E-002
   1.9011111111111112         -3.3327851444482803E-002
   1.9111111111111114         -2.9998091980814934E-002
   1.9211111111111112         -2.6305668056011200E-002
   1.9311111111111110         -2.2332463413476944E-002
   1.9411111111111112         -1.8165057525038719E-002
   1.9511111111111110         -1.3892279006540775E-002
   1.9611111111111112         -9.6027497202157974E-003
   1.9711111111111110         -5.3824903443455696E-003
   1.9811111111111113         -1.3126535341143608E-003
   1.9911111111111111          2.5325410533696413E-003
   2.0011111111111113          6.0876128263771534E-003
   2.0111111111111111          9.2973215505480766E-003
   2.0211111111111113          1.2117819860577583E-002
   2.0311111111111111          1.4517428353428841E-002
   2.0411111111111113          1.6477022320032120E-002
   2.0511111111111111          1.7990021035075188E-002
   2.0611111111111113          1.9061980769038200E-002
   2.0711111111111111          1.9709836691617966E-002
   2.0811111111111114          1.9960794597864151E-002
   2.0911111111111111          1.9850945100188255E-002
   2.1011111111111114          1.9423641264438629E-002
   2.1111111111111112          1.8727712333202362E-002
   2.1211111111111114          1.7815560102462769E-002
   2.1311111111111112          1.6741238534450531E-002
   2.1411111111111114          1.5558552928268909E-002
   2.1511111111111112          1.4319274574518204E-002
   2.1611111111111114          1.3071509078145027E-002
   2.1711111111111112          1.1858284473419189E-002
   2.1811111111111114          1.0716400109231472E-002
   2.1911111111111112          9.6755614504218102E-003
   2.2011111111111110          8.7578231468796730E-003
   2.2111111111111112          7.9773506149649620E-003
   2.2211111111111110          7.3404842987656593E-003
   2.2311111111111113          6.8461005575954914E-003
   2.2411111111111111          6.4862295985221863E-003
   2.2511111111111113          6.2469048425555229E-003
   2.2611111111111111          6.1091892421245575E-003
   2.2711111111111113          6.0503398999571800E-003
   2.2811111111111111          6.0450495220720768E-003
   2.2911111111111113          6.0667158104479313E-003
   2.3011111111111111          6.0886866413056850E-003
   2.3111111111111113          6.0854330658912659E-003
   2.3211111111111111          6.0336072929203510E-003
   2.3311111111111114          5.9129511937499046E-003
   2.3411111111111111          5.7070297189056873E-003
   2.3511111111111114          5.4037678055465221E-003
   2.3611111111111112          4.9957898445427418E-003
   2.3711111111111114          4.4805565848946571E-003
   2.3811111111111112          3.8603132124990225E-003
   2.3911111111111114          3.1418653670698404E-003
   2.4011111111111112          2.3362017236649990E-003
   2.4111111111111114          1.4579890994355083E-003
   2.4211111111111112          5.2496232092380524E-004
   2.4311111111111114         -4.4276579865254462E-004
   2.4411111111111112         -1.4234544942155480E-003
   2.4511111111111110         -2.3945223074406385E-003
   2.4611111111111112         -3.3333518076688051E-003
   2.4711111111111110         -4.2180898599326611E-003
   2.4811111111111113         -5.0284210592508316E-003
   2.4911111111111111         -5.7462891563773155E-003
   2.5011111111111113         -6.3565387390553951E-003
   2.5111111111111111         -6.8474467843770981E-003
   2.5211111111111113         -7.2111138142645359E-003
   2.5311111111111111         -7.4436916038393974E-003
   2.5411111111111113         -7.5454227626323700E-003
   2.5511111111111111         -7.5204893946647644E-003
   2.5611111111111113         -7.3766675777733326E-003
   2.5711111111111111         -7.1248160675168037E-003
   2.5811111111111114         -6.7782276310026646E-003
   2.5911111111111111         -6.3518942333757877E-003
   2.6011111111111114         -5.8617372997105122E-003
   2.6111111111111112         -5.3238617256283760E-003
   2.6211111111111114         -4.7538820654153824E-003
   2.6311111111111112         -4.1663660667836666E-003
   2.6411111111111114         -3.5744167398661375E-003
   2.6511111111111112         -2.9894029721617699E-003
   2.6611111111111114         -2.4208275135606527E-003
   2.6711111111111112         -1.8763113766908646E-003
   2.6811111111111114         -1.3616585638374090E-003
   2.6911111111111112         -8.8096951367333531E-004
   2.7011111111111110         -4.3677369831129909E-004
   2.7111111111111112         -3.0161398171912879E-005
   2.7211111111111110          3.3908925252035260E-004
   2.7311111111111113          6.7238276824355125E-004
   2.7411111111111111          9.7215693676844239E-004
   2.7511111111111113          1.2416923418641090E-003
   2.7611111111111111          1.4848626451566815E-003
   2.7711111111111113          1.7058172961696982E-003
   2.7811111111111111          1.9086041720584035E-003
   2.7911111111111113          2.0967558957636356E-003
   2.8011111111111111          2.2728794720023870E-003
   2.8111111111111113          2.4382988922297955E-003
   2.8211111111111111          2.5928057730197906E-003
   2.8311111111111114          2.7345607522875071E-003
   2.8411111111111111          2.8601773083209991E-003
   2.8511111111111114          2.9649946372956038E-003
   2.8611111111111112          3.0435172375291586E-003
   2.8711111111111114          3.0899771954864264E-003
   2.8811111111111112          3.0989546794444323E-003
   2.8911111111111114          3.0659814365208149E-003
   2.9011111111111112          2.9880567453801632E-003
   2.9111111111111114          2.8640159871429205E-003
   2.9211111111111112          2.6947178412228823E-003
   2.9311111111111114          2.4830393958836794E-003
   2.9411111111111112          2.2337008267641068E-003
   2.9511111111111110          1.9529612036421895E-003
   2.9611111111111112          1.6482402570545673E-003
   2.9711111111111110          1.3277272228151560E-003
   2.9811111111111113          1.0000267066061497E-003
   2.9911111111111111          6.7387375747784972E-004
   3.0011111111111113          3.5792854032479227E-004
   3.0111111111111111          6.0636819398496300E-005
   3.0211111111111113         -2.0987576863262802E-004
   3.0311111111111111         -4.4591756886802614E-004
   3.0411111111111113         -6.4039282733574510E-004
   3.0511111111111111         -7.8703952021896839E-004
   3.0611111111111113         -8.8075117673724890E-004
   3.0711111111111111         -9.1796467313542962E-004
   3.0811111111111114         -8.9707376901060343E-004
   3.0911111111111111         -8.1880990182980895E-004
   3.1011111111111114         -6.8652385380119085E-004
   3.1111111111111112         -5.0630688201636076E-004
   3.1211111111111109         -2.8690538601949811E-004
   3.1311111111111116         -3.9408005250152200E-005
   3.1411111111111114          2.2328477643895894E-004
   3.1511111111111112          4.8716945457272232E-004
   3.1611111111111110          7.3796248761937022E-004
   3.1711111111111117          9.6195877995342016E-004
   3.1811111111111114          1.1468436568975449E-003
   3.1911111111111112          1.2823861325159669E-003
   3.2011111111111110          1.3609584420919418E-003
   3.2111111111111108          1.3778550783172250E-003
   3.2211111111111115          1.3314075767993927E-003
   3.2311111111111113          1.2229161802679300E-003
   3.2411111111111111          1.0564362164586782E-003
   3.2511111111111108          8.3846290362998843E-004
   3.2611111111111115          5.7755719171836972E-004
   3.2711111111111113          2.8394555556587875E-004
   3.2811111111111111         -3.0888186302036047E-005
   3.2911111111111109         -3.5461576771922410E-004
   3.3011111111111116         -6.7449134076014161E-004
   3.3111111111111113         -9.7780756186693907E-004
   3.3211111111111111         -1.2523951008915901E-003
   3.3311111111111109         -1.4871685998514295E-003
   3.3411111111111116         -1.6727095935493708E-003
   3.3511111111111114         -1.8018552800640464E-003
   3.3611111111111112         -1.8702464876696467E-003
   3.3711111111111109         -1.8767756409943104E-003
   3.3811111111111116         -1.8238691845908761E-003
   3.3911111111111114         -1.7175461398437619E-003
   3.4011111111111112         -1.5672090230509639E-003
   3.4111111111111110         -1.3851475669071078E-003
   3.4211111111111117         -1.1857675854116678E-003
   3.4311111111111114         -9.8458933643996716E-004
   3.4411111111111112         -7.9709140118211508E-004
   3.4511111111111110         -6.3749891705811024E-004
   3.4611111111111117         -5.1763042574748397E-004
   3.4711111111111115         -4.4591524056158960E-004
   3.4811111111111113         -4.2668238165788352E-004
   3.4911111111111111         -4.5979433343745768E-004
   3.5011111111111108         -5.4066360462456942E-004
   3.5111111111111115         -6.6064886050298810E-004
   3.5211111111111113         -8.0778636038303375E-004
   3.5311111111111111         -9.6777593716979027E-004
   3.5411111111111109         -1.1251154355704784E-003
   3.5511111111111116         -1.2642646906897426E-003
   3.5611111111111113         -1.3707244070246816E-003
   3.5711111111111111         -1.4319306937977672E-003
   3.5811111111111109         -1.4379001222550869E-003
   3.5911111111111116         -1.3815942220389843E-003
   3.6011111111111114         -1.2590136611834168E-003
   3.6111111111111112         -1.0690677445381880E-003
   3.6211111111111109         -8.1328884698450565E-004
   3.6311111111111116         -4.9547263188287616E-004
   3.6411111111111114         -1.2132258416386321E-004
   3.6511111111111112          3.0184240313246846E-004
   3.6611111111111110          7.6528533827513456E-004
   3.6711111111111117          1.2589549878612161E-003
   3.6811111111111114          1.7715273424983025E-003
   3.6911111111111112          2.2904400248080492E-003
   3.7011111111111110          2.8019836172461510E-003
   3.7111111111111117          3.2915091142058372E-003
   3.7211111111111115          3.7437910214066505E-003
   3.7311111111111113          4.1435565799474716E-003
   3.7411111111111111          4.4761518947780132E-003
   3.7511111111111108          4.7282921150326729E-003
   3.7611111111111115          4.8888120800256729E-003
   3.7711111111111113          4.9493247643113136E-003
   3.7811111111111111          4.9047158099710941E-003
   3.7911111111111109          4.7534098848700523E-003
   3.8011111111111116          4.4973925687372684E-003
   3.8111111111111113          4.1420087218284607E-003
   3.8211111111111111          3.6955869290977716E-003
   3.8311111111111109          3.1689738389104605E-003
   3.8411111111111116          2.5750594213604927E-003
   3.8511111111111114          1.9283664878457785E-003
   3.8611111111111112          1.2447470799088478E-003
   3.8711111111111109          5.4118921980261803E-004
   3.8811111111111116         -1.6430832329206169E-004
   3.8911111111111114         -8.5286755347624421E-004
   3.9011111111111112         -1.5049609355628490E-003
   3.9111111111111110         -2.1008299663662910E-003
   3.9211111111111117         -2.6211517397314310E-003
   3.9311111111111114         -3.0479661654680967E-003
   3.9411111111111112         -3.3658160828053951E-003
   3.9511111111111110         -3.5629915073513985E-003
   3.9611111111111117         -3.6327256821095943E-003
   3.9711111111111115         -3.5741613246500492E-003
   3.9811111111111113         -3.3929147757589817E-003
   3.9911111111111111         -3.1011025421321392E-003
   4.0011111111111113         -2.7167596854269505E-003
   4.0111111111111111         -2.2626644931733608E-003
   4.0211111111111109         -1.7646651249378920E-003
   4.0311111111111106         -1.2496877461671829E-003
   4.0411111111111104         -7.4364617466926575E-004
   4.0511111111111120         -2.6949786115437746E-004
   4.0611111111111118          1.5433547378052026E-004
   4.0711111111111116          5.1501794951036572E-004
   4.0811111111111114          8.0573465675115585E-004
   4.0911111111111111          1.0255151428282261E-003
   4.1011111111111109          1.1785312090069056E-003
   4.1111111111111107          1.2730195885524154E-003
   4.1211111111111105          1.3200104003772140E-003
   4.1311111111111121          1.3320439029484987E-003
   4.1411111111111119          1.3220257824286819E-003
   4.1511111111111116          1.3023138744756579E-003
   4.1611111111111114          1.2840677518397570E-003
   4.1711111111111112          1.2768302112817764E-003
   4.1811111111111110          1.2882644077762961E-003
   4.1911111111111108          1.3239521067589521E-003
   4.2011111111111106          1.3871664414182305E-003
   4.2111111111111121          1.4785627136006951E-003
   4.2211111111111119          1.5957780415192246E-003
   4.2311111111111117          1.7329800175502896E-003
   4.2411111111111115          1.8804414430633187E-003
   4.2511111111111113          2.0242410246282816E-003
   4.2611111111111111          2.1461804863065481E-003
   4.2711111111111109          2.2239813115447760E-003
   4.2811111111111106          2.2317741531878710E-003
   4.2911111111111104          2.1408414468169212E-003
   4.3011111111111120          1.9205184653401375E-003
   4.3111111111111118          1.5391288325190544E-003
   4.3211111111111116          9.6481683431193233E-004
   4.3311111111111114          1.6615750791970640E-004
   4.3411111111111111         -8.8753132149577141E-004
   4.3511111111111109         -2.2261945996433496E-003
   4.3611111111111107         -3.8793217390775681E-003
   4.3711111111111105         -5.8764102868735790E-003
   4.3811111111111121         -8.2474844530224800E-003
   4.3911111111111119         -1.1023533530533314E-002
   4.4011111111111116         -1.4236764982342720E-002
   4.4111111111111114         -1.7920594662427902E-002
   4.4211111111111112         -2.2109366953372955E-002
   4.4311111111111110         -2.6837836951017380E-002
   4.4411111111111108         -3.2140497118234634E-002
   4.4511111111111106         -3.8050834089517593E-002
   4.4611111111111121         -4.4600605964660645E-002
   4.4711111111111119         -5.1819175481796265E-002
   4.4811111111111117         -5.9732913970947266E-002
   4.4911111111111115         -6.8364568054676056E-002
   4.5011111111111113         -7.7732540667057037E-002
   4.5111111111111111         -8.7849862873554230E-002
   4.5211111111111109         -9.8722800612449646E-002
   4.5311111111111106        -0.11034891754388809     
   4.5411111111111104        -0.12271459400653839     
   4.5511111111111120        -0.13579203188419342     