 -0.88888888888888884          7.8489075558207037E-018
 -0.87888888888888883          4.4934605513940041E-016
 -0.86888888888888882          3.7587294557481655E-015
 -0.85888888888888881          1.4785651273208772E-014
 -0.84888888888888880          3.1704060356836303E-014
 -0.83888888888888880          3.5424811819844901E-014
 -0.82888888888888879         -4.5726391796000864E-015
 -0.81888888888888878         -1.0185815136221771E-013
 -0.80888888888888888         -2.2111866916467438E-013
 -0.79888888888888887         -2.7458013618884836E-013
 -0.78888888888888886         -1.6312970939347249E-013
 -0.77888888888888885          1.5548920115869558E-013
 -0.76888888888888884          6.1359500379970511E-013
 -0.75888888888888884          1.0325249769765898E-012
 -0.74888888888888883          1.1801473426970022E-012
 -0.73888888888888882          8.6162175484683079E-013
 -0.72888888888888881          5.3083597156074365E-015
 -0.71888888888888880         -1.2867961904361458E-012
 -0.70888888888888890         -2.7397238124005074E-012
 -0.69888888888888889         -3.9592066604365872E-012
 -0.68888888888888888         -4.5245612811939395E-012
 -0.67888888888888888         -4.0864104634830145E-012
 -0.66888888888888887         -2.4237315713465657E-012
 -0.65888888888888886          5.6150543199448566E-013
 -0.64888888888888885          4.8715254920284057E-012
 -0.63888888888888884          1.0365317111571404E-011
 -0.62888888888888883          1.6560494295325690E-011
 -0.61888888888888882          2.2327585960657537E-011
 -0.60888888888888881          2.5660357519385890E-011
 -0.59888888888888880          2.3735244672473677E-011
 -0.58888888888888880          1.3344907644208259E-011
 -0.57888888888888879         -8.3532052802537393E-012
 -0.56888888888888878         -4.2759618762433504E-011
 -0.55888888888888877         -8.8104398776600590E-011
 -0.54888888888888876         -1.3664702702698150E-010
 -0.53888888888888875         -1.7122263329394372E-010
 -0.52888888888888885         -1.6358600585242300E-010
 -0.51888888888888884         -7.9157867760581979E-011
 -0.50888888888888884          1.0741465356067792E-010
 -0.49888888888888883          3.8643863109477650E-010
 -0.48888888888888882          6.8725353186138705E-010
 -0.47888888888888881          8.7199980569607760E-010
 -0.46888888888888886          7.7039813417556502E-010
 -0.45888888888888885          2.6319346702052826E-010
 -0.44888888888888884         -6.0659754996805759E-010
 -0.43888888888888883         -1.5473093917250935E-009
 -0.42888888888888882         -2.0250763288487406E-009
 -0.41888888888888881         -1.4120359326241783E-009
 -0.40888888888888886          7.3120198784693002E-010
 -0.39888888888888885          4.3215306888555460E-009
 -0.38888888888888884          8.5100113622615936E-009
 -0.37888888888888883          1.1681718703471233E-008
 -0.36888888888888882          1.1798555021869106E-008
 -0.35888888888888881          7.0836798649054344E-009
 -0.34888888888888880         -3.0704001563464089E-009
 -0.33888888888888880         -1.7189105250281500E-008
 -0.32888888888888879         -3.1090689134316563E-008
 -0.31888888888888878         -3.7886678683207720E-008
 -0.30888888888888888         -2.8951316011216477E-008
 -0.29888888888888887          3.8833438686936006E-009
 -0.28888888888888886          6.4915667508103070E-008
 -0.27888888888888885          1.5046350654301932E-007
 -0.26888888888888884          2.4527395225959481E-007
 -0.25888888888888884          3.2133584682014771E-007
 -0.24888888888888883          3.4120077430088713E-007
 -0.23888888888888882          2.6727630597633834E-007
 -0.22888888888888881          7.6833117645946913E-008
 -0.21888888888888880         -2.2011768407992349E-007
 -0.20888888888888879         -5.6563976613688283E-007
 -0.19888888888888878         -8.4868895555700874E-007
 -0.18888888888888877         -9.1690657200160786E-007
 -0.17888888888888888         -6.0926925016246969E-007
 -0.16888888888888887          1.9223868719109305E-007
 -0.15888888888888886          1.5010207334853476E-006
 -0.14888888888888885          3.1703746117273113E-006
 -0.13888888888888884          4.8645601964381058E-006
 -0.12888888888888883          6.0766656133637298E-006
 -0.11888888888888882          6.2072440414340235E-006
 -0.10888888888888881          4.7051516958163120E-006
  -9.8888888888888804E-002     1.2544501259981189E-006
  -8.8888888888888795E-002    -4.0282429836224765E-006
  -7.8888888888888786E-002    -1.0438303434057161E-005
  -6.8888888888888777E-002    -1.6630145182716660E-005
  -5.8888888888888768E-002    -2.0721672626677901E-005
  -4.8888888888888871E-002    -2.0588051484082825E-005
  -3.8888888888888862E-002    -1.4336887034005485E-005
  -2.8888888888888853E-002    -9.0565896471161977E-007
  -1.8888888888888844E-002     1.9329901988385245E-005
  -8.8888888888888351E-003     4.4087450078222901E-005
   1.1111111111111738E-003     6.9014080509077758E-005
   1.1111111111111183E-002     8.7968503066804260E-005
   2.1111111111111192E-002     9.3829170509707183E-005
   3.1111111111111200E-002     7.9812765761744231E-005
   4.1111111111111209E-002     4.1172861529048532E-005
   5.1111111111111218E-002    -2.2963797164265998E-005
   6.1111111111111227E-002    -1.0795172420330346E-004
   7.1111111111111125E-002    -2.0253643742762506E-004
   8.1111111111111134E-002    -2.8865414788015187E-004
   9.1111111111111143E-002    -3.4235347993671894E-004
  0.10111111111111115         -3.3590520615689456E-004
  0.11111111111111116         -2.4095718981698155E-004
  0.12111111111111117         -3.2379597541876137E-005
  0.13111111111111118          3.0773307662457228E-004
  0.14111111111111119          7.8653451055288315E-004
  0.15111111111111120          1.3979970244690776E-003
  0.16111111111111120          2.1220787893980742E-003
  0.17111111111111121          2.9257514979690313E-003
  0.18111111111111122          3.7658589426428080E-003
  0.19111111111111123          4.5934501104056835E-003
  0.20111111111111124          5.3589707240462303E-003
  0.21111111111111125          6.0175079852342606E-003
  0.22111111111111126          6.5332478843629360E-003
  0.23111111111111127          6.8824202753603458E-003
  0.24111111111111128          7.0542371831834316E-003
  0.25111111111111128          7.0496969856321812E-003
  0.26111111111111129          6.8784984759986401E-003
  0.27111111111111108          6.5546683035790920E-003
  0.28111111111111109          6.0917609371244907E-003
  0.29111111111111110          5.4985904134809971E-003
  0.30111111111111111          4.7763595357537270E-003
  0.31111111111111112          3.9178156293928623E-003
  0.32111111111111112          2.9086680151522160E-003
  0.33111111111111113          1.7310783732682467E-003
  0.34111111111111114          3.6861820262856781E-004
  0.35111111111111115         -1.1881922837346792E-003
  0.36111111111111116         -2.9367953538894653E-003
  0.37111111111111117         -4.8589119687676430E-003
  0.38111111111111118         -6.9189830683171749E-003
  0.39111111111111119         -9.0650748461484909E-003
  0.40111111111111120         -1.1232147924602032E-002
  0.41111111111111120         -1.3347170315682888E-002
  0.42111111111111121         -1.5335233882069588E-002
  0.43111111111111122         -1.7125660553574562E-002
  0.44111111111111123         -1.8657147884368896E-002
  0.45111111111111124         -1.9881194457411766E-002
  0.46111111111111125         -2.0763445645570755E-002
  0.47111111111111126         -2.1283024922013283E-002
  0.48111111111111127         -2.1430307999253273E-002
  0.49111111111111128         -2.1203918382525444E-002
  0.50111111111111128         -2.0607827231287956E-002
  0.51111111111111129         -1.9649330526590347E-002
  0.52111111111111108         -1.8338453024625778E-002
  0.53111111111111109         -1.6688887029886246E-002
  0.54111111111111110         -1.4720234088599682E-002
  0.55111111111111111         -1.2460873462259769E-002
  0.56111111111111112         -9.9506359547376633E-003
  0.57111111111111112         -7.2423922829329967E-003
  0.58111111111111113         -4.4018379412591457E-003
  0.59111111111111114         -1.5050997026264668E-003
  0.60111111111111115          1.3657521922141314E-003
  0.61111111111111116          4.1287657804787159E-003
  0.62111111111111117          6.7088278010487556E-003
  0.63111111111111118          9.0439356863498688E-003
  0.64111111111111119          1.1089933104813099E-002
  0.65111111111111120          1.2822876684367657E-002
  0.66111111111111120          1.4238636940717697E-002
  0.67111111111111121          1.5349864959716797E-002
  0.68111111111111122          1.6180962324142456E-002
  0.69111111111111123          1.6762059181928635E-002
  0.70111111111111124          1.7123166471719742E-002
  0.71111111111111125          1.7289603129029274E-002
  0.72111111111111126          1.7279513180255890E-002
  0.73111111111111127          1.7103806138038635E-002
  0.74111111111111128          1.6768397763371468E-002
  0.75111111111111128          1.6278099268674850E-002
  0.76111111111111129          1.5641188248991966E-002
  0.77111111111111130          1.4873559586703777E-002
  0.78111111111111109          1.4001415111124516E-002
  0.79111111111111110          1.3061770237982273E-002
  0.80111111111111111          1.2100514024496078E-002
  0.81111111111111112          1.1168267577886581E-002
  0.82111111111111112          1.0314749553799629E-002
  0.83111111111111113          9.5826806500554085E-003
  0.84111111111111114          9.0023484081029892E-003
  0.85111111111111115          8.5878251120448112E-003
  0.86111111111111116          8.3355139940977097E-003
  0.87111111111111117          8.2252528518438339E-003
  0.88111111111111118          8.2237552851438522E-003
  0.89111111111111119          8.2897571846842766E-003
  0.90111111111111120          8.3799911662936211E-003
  0.91111111111111120          8.4550045430660248E-003
  0.92111111111111121          8.4839183837175369E-003
  0.93111111111111122          8.4474571049213409E-003
  0.94111111111111123          8.3389123901724815E-003
  0.95111111111111124          8.1630777567625046E-003
  0.96111111111111125          7.9335542395710945E-003
  0.97111111111111126          7.6690609566867352E-003
  0.98111111111111127          7.3895193636417389E-003
  0.99111111111111128          7.1126255206763744E-003
   1.0011111111111113          6.8514510057866573E-003
   1.0111111111111113          6.6133434884250164E-003
   1.0211111111111113          6.4001167193055153E-003
   1.0311111111111111          6.2092687003314495E-003
   1.0411111111111111          6.0358103364706039E-003
   1.0511111111111111          5.8742291294038296E-003
   1.0611111111111111          5.7201525196433067E-003
   1.0711111111111111          5.5713946931064129E-003
   1.0811111111111111          5.4282313212752342E-003
   1.0911111111111111          5.2929273806512356E-003
   1.1011111111111112          5.1687038503587246E-003
   1.1111111111111112          5.0584524869918823E-003
   1.1211111111111114          4.9635572358965874E-003
   1.1311111111111112          4.8831528984010220E-003
   1.1411111111111114          4.8140394501388073E-003
   1.1511111111111112          4.7513074241578579E-003
   1.1611111111111110          4.6895444393157959E-003
   1.1711111111111112          4.6243527904152870E-003
   1.1811111111111110          4.5538260601460934E-003
   1.1911111111111112          4.4796424917876720E-003
   1.2011111111111110          4.4075236655771732E-003
   1.2111111111111112          4.3469369411468506E-003
   1.2211111111111110          4.3100710026919842E-003
   1.2311111111111113          4.3102330528199673E-003
   1.2411111111111111          4.3599130585789680E-003
   1.2511111111111113          4.4687897898256779E-003
   1.2611111111111111          4.6419627033174038E-003
   1.2711111111111113          4.8786494880914688E-003
   1.2811111111111111          5.1715206354856491E-003
   1.2911111111111113          5.5067487992346287E-003
   1.3011111111111111          5.8647533878684044E-003
   1.3111111111111113          6.2215314246714115E-003
   1.3211111111111111          6.5504009835422039E-003
   1.3311111111111114          6.8239676766097546E-003
   1.3411111111111111          7.0161349140107632E-003
   1.3511111111111114          7.1040093898773193E-003
   1.3611111111111112          7.0695839822292328E-003
   1.3711111111111114          6.9010965526103973E-003
   1.3811111111111112          6.5939449705183506E-003
   1.3911111111111114          6.1510405503213406E-003
   1.4011111111111112          5.5824918672442436E-003
   1.4111111111111114          4.9045649357140064E-003
   1.4211111111111112          4.1379700414836407E-003
   1.4311111111111110          3.3056491520255804E-003
   1.4411111111111112          2.4303589016199112E-003
   1.4511111111111110          1.5324089908972383E-003
   1.4611111111111112          6.2792195240035653E-004
   1.4711111111111110         -2.7210445841774344E-004
   1.4811111111111113         -1.1617875425145030E-003
   1.4911111111111111         -2.0394341554492712E-003
   1.5011111111111113         -2.9058987274765968E-003
   1.5111111111111111         -3.7625641562044621E-003
   1.5211111111111113         -4.6093566343188286E-003
   1.5311111111111111         -5.4432069882750511E-003
   1.5411111111111113         -6.2572858296334743E-003
   1.5511111111111111         -7.0411856286227703E-003
   1.5611111111111113         -7.7820126898586750E-003
   1.5711111111111111         -8.4661515429615974E-003
   1.5811111111111114         -9.0812956914305687E-003
   1.5911111111111111         -9.6182608976960182E-003
   1.6011111111111114         -1.0072167962789536E-002
   1.6111111111111112         -1.0442721657454967E-002
   1.6211111111111114         -1.0733552277088165E-002
   1.6311111111111112         -1.0950843803584576E-002
   1.6411111111111114         -1.1101618409156799E-002
   1.6511111111111112         -1.1192142963409424E-002
   1.6611111111111114         -1.1226847767829895E-002
   1.6711111111111112         -1.1207994073629379E-002
   1.6811111111111110         -1.1136102490127087E-002
   1.6911111111111112         -1.1010969057679176E-002
   1.7011111111111110         -1.0832940228283405E-002
   1.7111111111111112         -1.0604065842926502E-002
   1.7211111111111110         -1.0328794829547405E-002
   1.7311111111111113         -1.0013996623456478E-002
   1.7411111111111111         -9.6682626754045486E-003
   1.7511111111111113         -9.3006277456879616E-003
   1.7611111111111111         -8.9189996942877769E-003
   1.7711111111111113         -8.5286954417824745E-003
   1.7811111111111111         -8.1314695999026299E-003
   1.7911111111111113         -7.7253268100321293E-003
   1.8011111111111111         -7.3052449151873589E-003
   1.8111111111111113         -6.8646776489913464E-003
   1.8211111111111111         -6.3975276425480843E-003
   1.8311111111111114         -5.9001264162361622E-003
   1.8411111111111111         -5.3727612830698490E-003
   1.8511111111111114         -4.8203864134848118E-003
   1.8611111111111112         -4.2523648589849472E-003
   1.8711111111111114         -3.6813174374401569E-003
   1.8811111111111112         -3.1213408801704645E-003
   1.8911111111111114         -2.5859773159027100E-003
   1.9011111111111112         -2.0863327663391829E-003
   1.9111111111111114         -1.6296760877594352E-003
   1.9211111111111112         -1.2187397805973887E-003
   1.9311111111111110         -8.5180939640849829E-004
   1.9411111111111112         -5.2356073865666986E-004
   1.9511111111111110         -2.2648366575594991E-004
   1.9611111111111112          4.7367833758471534E-005
   1.9711111111111110          3.0462577706202865E-004
   1.9811111111111113          5.4919929243624210E-004
   1.9911111111111111          7.8149023465812206E-004
   2.0011111111111113          9.9839153699576855E-004
   2.0111111111111111          1.1940544936805964E-003
   2.0211111111111113          1.3612414477393031E-003
   2.0311111111111111          1.4929595636203885E-003
   2.0411111111111113          1.5840322012081742E-003
   2.0511111111111111          1.6323114978149533E-003
   2.0611111111111113          1.6393351834267378E-003
   2.0711111111111111          1.6103504458442330E-003
   2.0811111111111114          1.5537267317995429E-003
   2.0911111111111111          1.4798594638705254E-003
   2.1011111111111114          1.3997297501191497E-003
   2.1111111111111112          1.3233413919806480E-003
   2.1211111111111114          1.2583121424540877E-003
   2.1311111111111112          1.2089122319594026E-003
   2.1411111111111114          1.1757946340367198E-003
   2.1511111111111112          1.1565270833671093E-003
   2.1611111111111114          1.1468341108411551E-003
   2.1711111111111112          1.1422479292377830E-003
   2.1811111111111114          1.1397281195968390E-003
   2.1911111111111112          1.1388015700504184E-003
   2.2011111111111110          1.1419106740504503E-003
   2.2111111111111112          1.1538875987753272E-003
   2.2211111111111110          1.1807212140411139E-003
   2.2311111111111113          1.2279632501304150E-003
   2.2411111111111111          1.2991854455322027E-003
   2.2511111111111113          1.3948554405942559E-003
   2.2611111111111111          1.5118797309696674E-003
   2.2711111111111113          1.6439184546470642E-003
   2.2811111111111111          1.7824295209720731E-003
   2.2911111111111113          1.9182632677257061E-003
   2.3011111111111111          2.0434998441487551E-003
   2.3111111111111113          2.1531188394874334E-003
   2.3211111111111111          2.2460536565631628E-003
   2.3311111111111114          2.3252647370100021E-003
   2.3411111111111111          2.3966757580637932E-003
   2.3511111111111114          2.4671342689543962E-003
   2.3611111111111112          2.5418698787689209E-003
   2.3711111111111114          2.6221296284347773E-003
   2.3811111111111112          2.7036666870117188E-003
   2.3911111111111114          2.7765382546931505E-003
   2.4011111111111112          2.8263106942176819E-003
   2.4111111111111114          2.8363948222249746E-003
   2.4211111111111112          2.7909767813980579E-003
   2.4311111111111114          2.6779314503073692E-003
   2.4411111111111112          2.4911803193390369E-003
   2.4511111111111110          2.2321324795484543E-003
   2.4611111111111112          1.9100239733234048E-003
   2.4711111111111110          1.5411288477480412E-003
   2.4811111111111113          1.1469416785985231E-003
   2.4911111111111111          7.5156526872888207E-004
   2.5011111111111113          3.7868230720050633E-004
   2.5111111111111111          4.8610905651003122E-005
   2.5211111111111113         -2.2402676404453814E-004
   2.5311111111111111         -4.3160328641533852E-004
   2.5411111111111113         -5.7358102640137076E-004
   2.5511111111111111         -6.5553816966712475E-004
   2.5611111111111113         -6.8750436184927821E-004
   2.5711111111111111         -6.8206805735826492E-004
   2.5811111111111114         -6.5262842690572143E-004
   2.5911111111111111         -6.1195949092507362E-004
   2.6011111111111114         -5.7107297470793128E-004
   2.6111111111111112         -5.3829484386369586E-004
   2.6211111111111114         -5.1853485638275743E-004
   2.6311111111111112         -5.1285716472193599E-004
   2.6411111111111114         -5.1853811601176858E-004
   2.6511111111111112         -5.2974373102188110E-004
   2.6611111111111114         -5.3877651225775480E-004
   2.6711111111111112         -5.3762644529342651E-004
   2.6811111111111114         -5.1943428115919232E-004
   2.6911111111111112         -4.7951354645192623E-004
   2.7011111111111110         -4.1576757212169468E-004
   2.7111111111111112         -3.2857197220437229E-004
   2.7211111111111110         -2.2034793801140040E-004
   2.7311111111111113         -9.5062263426370919E-005
   2.7411111111111111          4.2220839532092214E-005
   2.7511111111111113          1.8574354180600494E-004
   2.7611111111111111          3.2947523868642747E-004
   2.7711111111111113          4.6755597577430308E-004
   2.7811111111111111          5.9465976664796472E-004
   2.7911111111111113          7.0612115086987615E-004
   2.8011111111111111          7.9774420009925961E-004
   2.8111111111111113          8.6540309712290764E-004
   2.8211111111111111          9.0473436284810305E-004
   2.8311111111111114          9.1127672931179404E-004
   2.8411111111111111          8.8125810725614429E-004
   2.8511111111111114          8.1291073001921177E-004
   2.8611111111111112          7.0787506410852075E-004
   2.8711111111111114          5.7210726663470268E-004
   2.8811111111111112          4.1583349229767919E-004
   2.8911111111111114          2.5244086282327771E-004
   2.9011111111111112          9.6594892966095358E-005
   2.9111111111111114         -3.7876325222896412E-005
   2.9211111111111112         -1.3979047071188688E-004
   2.9311111111111114         -2.0178922568447888E-004
   2.9411111111111112         -2.2084957163315266E-004
   2.9511111111111110         -1.9828288350254297E-004
   2.9611111111111112         -1.3939649215899408E-004
   2.9711111111111110         -5.2891129598719999E-005
   2.9811111111111113          5.0029280828312039E-005
   2.9911111111111111          1.5684025129303336E-004
   3.0011111111111113          2.5503741926513612E-004
   3.0111111111111111          3.3334322506561875E-004
   3.0211111111111113          3.8245378527790308E-004
   3.0311111111111111          3.9516494143754244E-004
   3.0411111111111113          3.6602010368369520E-004
   3.0511111111111111          2.9089328018017113E-004
   3.0611111111111113          1.6697999672032893E-004
   3.0711111111111111         -6.5554204411455430E-006
   3.0811111111111114         -2.2743403678759933E-004
   3.0911111111111111         -4.8914388753473759E-004
   3.1011111111111114         -7.8048772411420941E-004
   3.1111111111111112         -1.0862122289836407E-003
   3.1211111111111109         -1.3886862434446812E-003
   3.1311111111111116         -1.6701559070497751E-003
   3.1411111111111114         -1.9149080617353320E-003
   3.1511111111111112         -2.1107927896082401E-003
   3.1611111111111110         -2.2499060723930597E-003
   3.1711111111111117         -2.3285828065127134E-003
   3.1811111111111114         -2.3470213636755943E-003
   3.1911111111111112         -2.3087880108505487E-003
   3.2011111111111110         -2.2202602121978998E-003
   3.2111111111111108         -2.0899211522191763E-003
   3.2211111111111115         -1.9274561200290918E-003
   3.2311111111111113         -1.7427915008738637E-003
   3.2411111111111111         -1.5454045496881008E-003
   3.2511111111111108         -1.3442360796034336E-003
   3.2611111111111115         -1.1483035050332546E-003
   3.2711111111111113         -9.6773216500878334E-004
   3.2811111111111111         -8.1463827518746257E-004
   3.2911111111111109         -7.0329476147890091E-004
   3.3011111111111116         -6.4934167312458158E-004
   3.3111111111111113         -6.6829234128817916E-004
   3.3211111111111111         -7.7396206324920058E-004
   3.3311111111111109         -9.7747996915131807E-004
   3.3411111111111116         -1.2872080551460385E-003
   3.3511111111111114         -1.7093756468966603E-003
   3.3611111111111112         -2.2488366812467575E-003
   3.3711111111111109         -2.9093085322529078E-003
   3.3811111111111116         -3.6927661858499050E-003
   3.3911111111111114         -4.5981486327946186E-003
   3.4011111111111112         -5.6199030950665474E-003
   3.4111111111111110         -6.7469472996890545E-003
   3.4211111111111117         -7.9623637720942497E-003
   3.4311111111111114         -9.2437621206045151E-003
   3.4411111111111112         -1.0564012452960014E-002
   3.4511111111111110         -1.1892043054103851E-002
   3.4611111111111117         -1.3193651102483273E-002
   3.4711111111111115         -1.4432459138333797E-002
   3.4811111111111113         -1.5571192838251591E-002
   3.4911111111111111         -1.6573216766119003E-002
   3.5011111111111108         -1.7403954640030861E-002
   3.5111111111111115         -1.8031667917966843E-002
   3.5211111111111113         -1.8427262082695961E-002
   3.5311111111111111         -1.8563272431492805E-002
   3.5411111111111109         -1.8412711098790169E-002
   3.5511111111111116         -1.7948694527149200E-002
   3.5611111111111113         -1.7145570367574692E-002
   3.5711111111111111         -1.5981592237949371E-002
   3.5811111111111109         -1.4442498795688152E-002
   3.5911111111111116         -1.2524903751909733E-002
   3.6011111111111114         -1.0238477028906345E-002
   3.6111111111111112         -7.6064099557697773E-003
   3.6211111111111109         -4.6643260866403580E-003
   3.6311111111111116         -1.4582697767764330E-003
   3.6411111111111114          1.9575341138988733E-003
   3.6511111111111112          5.5227312259376049E-003
   3.6611111111111110          9.1726388782262802E-003
   3.6711111111111117          1.2839938513934612E-002
   3.6811111111111114          1.6456315293908119E-002
   3.6911111111111112          1.9953895360231400E-002
   3.7011111111111110          2.3266205564141273E-002
   3.7111111111111117          2.6328546926379204E-002
   3.7211111111111115          2.9078051447868347E-002
   3.7311111111111113          3.1454086303710938E-002
   3.7411111111111111          3.3399716019630432E-002
   3.7511111111111108          3.4864563494920731E-002
   3.7611111111111115          3.5808723419904709E-002
   3.7711111111111113          3.6206696182489395E-002
   3.7811111111111111          3.6050166934728622E-002
   3.7911111111111109          3.5348683595657349E-002
   3.8011111111111116          3.4128189086914062E-002
   3.8111111111111113          3.2428029924631119E-002
   3.8211111111111111          3.0297530815005302E-002
   3.8311111111111109          2.7793079614639282E-002
   3.8411111111111116          2.4976037442684174E-002
   3.8511111111111114          2.1911276504397392E-002
   3.8611111111111112          1.8665794283151627E-002
   3.8711111111111109          1.5307036228477955E-002
   3.8811111111111116          1.1900917626917362E-002
   3.8911111111111114          8.5099125280976295E-003
   3.9011111111111112          5.1916064694523811E-003
   3.9111111111111110          1.9978324417024851E-003
   3.9211111111111117         -1.0258413385599852E-003
   3.9311111111111114         -3.8406718522310257E-003
   3.9411111111111112         -6.4155422151088715E-003
   3.9511111111111110         -8.7277563288807869E-003
   3.9611111111111117         -1.0763213038444519E-002
   3.9711111111111115         -1.2515367008745670E-002
   3.9811111111111113         -1.3982874341309071E-002
   3.9911111111111111         -1.5166522003710270E-002
   4.0011111111111113         -1.6066590324044228E-002
   4.0111111111111111         -1.6681788489222527E-002
   4.0211111111111109         -1.7010293900966644E-002
   4.0311111111111106         -1.7052534967660904E-002
   4.0411111111111104         -1.6814580187201500E-002
   4.0511111111111120         -1.6310827806591988E-002
   4.0611111111111118         -1.5565071254968643E-002
   4.0711111111111116         -1.4609781093895435E-002
   4.0811111111111114         -1.3484103605151176E-002
   4.0911111111111111         -1.2231331318616867E-002
   4.1011111111111109         -1.0896392166614532E-002
   4.1111111111111107         -9.5235137268900871E-003
   4.1211111111111105         -8.1539647653698921E-003
   4.1311111111111121         -6.8238675594329834E-003
   4.1411111111111119         -5.5623929947614670E-003
   4.1511111111111116         -4.3909223750233650E-003
   4.1611111111111114         -3.3236541785299778E-003
   4.1711111111111112         -2.3696259595453739E-003
   4.1811111111111110         -1.5354355564340949E-003
   4.1911111111111108         -8.2750478759407997E-004
   4.2011111111111106         -2.5283655850216746E-004
   4.2111111111111121          1.8211768474429846E-004
   4.2211111111111119          4.7397578600794077E-004
   4.2311111111111117          6.2519131461158395E-004
   4.2411111111111115          6.4589030807837844E-004
   4.2511111111111113          5.5413477821275592E-004
   4.2611111111111111          3.7473623524419963E-004
   4.2711111111111109          1.3728688645642251E-004
   4.2811111111111106         -1.2588864774443209E-004
   4.2911111111111104         -3.8157051312737167E-004
   4.3011111111111120         -5.9748737839981914E-004
   4.3111111111111118         -7.4459274765104055E-004
   4.3211111111111116         -7.9992995597422123E-004
   4.3311111111111114         -7.4966030661016703E-004
   4.3411111111111111         -5.9133442118763924E-004
   4.3511111111111109         -3.3444678410887718E-004
   4.3611111111111107          1.1742465630959487E-006
   4.3711111111111105          3.8878546911291778E-004
   4.3811111111111121          7.9894490772858262E-004
   4.3911111111111119          1.2033599196001887E-003
   4.4011111111111116          1.5775936190038919E-003
   4.4111111111111114          1.9025091314688325E-003
   4.4211111111111112          2.1648239344358444E-003
   4.4311111111111110          2.3572079371660948E-003
   4.4411111111111108          2.4780391249805689E-003
   4.4511111111111106          2.5305536109954119E-003
   4.4611111111111121          2.5210573803633451E-003
   4.4711111111111119          2.4562648031860590E-003
   4.4811111111111117          2.3404704406857491E-003
   4.4911111111111115          2.1737313363701105E-003
   4.5011111111111113          1.9521310459822416E-003
   4.5111111111111111          1.6704548615962267E-003
   4.5211111111111109          1.3265321031212807E-003
   4.5311111111111106          9.2566147213801742E-004
   4.5411111111111104          4.8335938481613994E-004
   4.5511111111111120          2.5274392100982368E-005