 -0.88888888888888884          0.0000000000000000     
 -0.87888888888888883          0.0000000000000000     
 -0.86888888888888882          0.0000000000000000     
 -0.85888888888888881          0.0000000000000000     
 -0.84888888888888880          0.0000000000000000     
 -0.83888888888888880          0.0000000000000000     
 -0.82888888888888879          0.0000000000000000     
 -0.81888888888888878          0.0000000000000000     
 -0.80888888888888888          0.0000000000000000     
 -0.79888888888888887          0.0000000000000000     
 -0.78888888888888886          0.0000000000000000     
 -0.77888888888888885          0.0000000000000000     
 -0.76888888888888884          0.0000000000000000     
 -0.75888888888888884          0.0000000000000000     
 -0.74888888888888883          0.0000000000000000     
 -0.73888888888888882          0.0000000000000000     
 -0.72888888888888881          0.0000000000000000     
 -0.71888888888888880          0.0000000000000000     
 -0.70888888888888890          0.0000000000000000     
 -0.69888888888888889          0.0000000000000000     
 -0.68888888888888888          0.0000000000000000     
 -0.67888888888888888          1.8414091775599375E-038
 -0.66888888888888887          1.2103657191589492E-037
 -0.65888888888888886          2.6376952642764498E-037
 -0.64888888888888885         -1.8201261724058643E-037
 -0.63888888888888884         -1.5183639693901820E-036
 -0.62888888888888883         -3.7010350670002819E-036
 -0.61888888888888882         -2.4875758861930402E-036
 -0.60888888888888881          8.2294003346620045E-036
 -0.59888888888888880          2.9723014639155391E-035
 -0.58888888888888880          4.0850400284382633E-035
 -0.57888888888888879         -1.1939663434096537E-035
 -0.56888888888888878         -1.7839061199901620E-034
 -0.55888888888888877         -3.9378142397585052E-034
 -0.54888888888888876         -3.5293662278687427E-034
 -0.53888888888888875          4.2805939025880537E-034
 -0.52888888888888885          2.1152310036306801E-033
 -0.51888888888888884          3.6773081612269778E-033
 -0.50888888888888884          2.3833107555303570E-033
 -0.49888888888888883         -4.9263135206458756E-033
 -0.48888888888888882         -1.7891266465225073E-032
 -0.47888888888888881         -2.7597686253845517E-032
 -0.46888888888888886         -1.5778641569304364E-032
 -0.45888888888888885          3.4857177900011087E-032
 -0.44888888888888884          1.1751500485269317E-031
 -0.43888888888888883          1.7736619310051656E-031
 -0.42888888888888882          1.1390125309962126E-031
 -0.41888888888888881         -1.6219593304058409E-031
 -0.40888888888888886         -6.1829408882912608E-031
 -0.39888888888888885         -9.9363484232069626E-031
 -0.38888888888888884         -8.1109580404478167E-031
 -0.37888888888888883          3.8498542603130987E-031
 -0.36888888888888882          2.5704975074515909E-030
 -0.35888888888888881          4.7776980473917185E-030
 -0.34888888888888880          5.0372588609572397E-030
 -0.33888888888888880          1.1408454793374498E-030
 -0.32888888888888879         -7.7038123124642401E-030
 -0.31888888888888878         -1.8924974556487194E-029
 -0.30888888888888888         -2.5660338262631004E-029
 -0.29888888888888887         -1.8409302299979204E-029
 -0.28888888888888886          9.9224843607147204E-030
 -0.27888888888888885          5.6657157567260610E-029
 -0.26888888888888884          1.0321094683157654E-028
 -0.25888888888888884          1.1551903547542066E-028
 -0.24888888888888883          5.5712807911685710E-029
 -0.23888888888888882         -9.4517708322725742E-029
 -0.22888888888888881         -3.0599632364786195E-028
 -0.21888888888888880         -4.8485363387146438E-028
 -0.20888888888888879         -4.8525552730260939E-028
 -0.19888888888888878         -1.6559477884756861E-028
 -0.18888888888888877          5.1656310744082803E-028
 -0.17888888888888888          1.4033664096116750E-027
 -0.16888888888888887          2.0887399729799663E-027
 -0.15888888888888886          1.9913811328032806E-027
 -0.14888888888888885          5.8891822507676626E-028
 -0.13888888888888884         -2.2177160346816796E-027
 -0.12888888888888883         -5.7420726919710685E-027
 -0.11888888888888882         -8.3753670456105925E-027
 -0.10888888888888881         -7.9157538792182895E-027
  -9.8888888888888804E-002    -2.4862313060510869E-027
  -8.8888888888888795E-002     8.1131771059575363E-027
  -7.8888888888888786E-002     2.1149778410587270E-026
  -6.8888888888888777E-002     3.0640232701350828E-026
  -5.8888888888888768E-002     2.8809434451752589E-026
  -4.8888888888888871E-002     9.6234905979740289E-027
  -3.8888888888888862E-002    -2.6430491888078454E-026
  -2.8888888888888853E-002    -6.8535896481931294E-026
  -1.8888888888888844E-002    -9.5842464627576346E-026
  -8.8888888888888351E-003    -8.4449778575205248E-026
   1.1111111111111738E-003    -2.0915455906857519E-026
   1.1111111111111183E-002     8.2558743399922398E-026
   2.1111111111111192E-002     1.8085895964449720E-025
   3.1111111111111200E-002     2.0758677505664620E-025
   4.1111111111111209E-002     1.1083520370258504E-025
   5.1111111111111218E-002    -9.5952196412087753E-026
   6.1111111111111227E-002    -2.9623413181233903E-025
   7.1111111111111125E-002    -2.8721111612651781E-025
   8.1111111111111134E-002     1.1514260611222136E-025
   9.1111111111111143E-002     8.9051036602417050E-025
  0.10111111111111115          1.6276433937147381E-024
  0.11111111111111116          1.4900331169014006E-024
  0.12111111111111117         -4.9243256571456868E-025
  0.13111111111111118         -4.7280473017729969E-024
  0.14111111111111119         -1.0129004788613095E-023
  0.15111111111111120         -1.3439891084288227E-023
  0.16111111111111120         -9.5937019221309367E-024
  0.17111111111111121          6.2075527740713837E-024
  0.18111111111111122          3.4625317096128448E-023
  0.19111111111111123          6.7699683165494452E-023
  0.20111111111111124          8.6381039049944288E-023
  0.21111111111111125          6.3584568165303698E-023
  0.22111111111111126         -2.4527152824604968E-023
  0.23111111111111127         -1.7961187724678022E-022
  0.24111111111111128         -3.6069762434355192E-022
  0.25111111111111128         -4.7430200079718365E-022
  0.26111111111111129         -3.9002093472048667E-022
  0.27111111111111108          8.0100494554034615E-024
  0.28111111111111109          7.3780173798017526E-022
  0.29111111111111110          1.6310184144020077E-021
  0.30111111111111111          2.2889196246012910E-021
  0.31111111111111112          2.1419177551851838E-021
  0.32111111111111112          6.5311367016348216E-022
  0.33111111111111113         -2.3493482379638440E-021
  0.34111111111111114         -6.3108840105938267E-021
  0.35111111111111115         -9.7441536885448543E-021
  0.36111111111111116         -1.0397993918534707E-020
  0.37111111111111117         -5.9585236488982766E-021
  0.38111111111111118          4.7504356538905996E-021
  0.39111111111111119          2.0390948833492593E-020
  0.40111111111111120          3.6176895955197251E-020
  0.41111111111111120          4.4145349746945044E-020
  0.42111111111111121          3.5226840247588886E-020
  0.43111111111111122          3.1326190097531956E-021
  0.44111111111111123         -5.0835618853016610E-020
  0.45111111111111124         -1.1391827998503728E-019
  0.46111111111111125         -1.6140819236717271E-019
  0.47111111111111126         -1.6164863050678715E-019
  0.48111111111111127         -8.7102525629791555E-020
  0.49111111111111128          7.0521082790403772E-020
  0.50111111111111128          2.8605035200607715E-019
  0.51111111111111129          4.9458845224316572E-019
  0.52111111111111108          6.0005821964431608E-019
  0.53111111111111109          5.0196747199380986E-019
  0.54111111111111110          1.3721751507290962E-019
  0.55111111111111111         -4.7438637523914798E-019
  0.56111111111111112         -1.1990180468327383E-018
  0.57111111111111112         -1.7919420404889377E-018
  0.58111111111111113         -1.9485511118878367E-018
  0.59111111111111114         -1.4024626015022726E-018
  0.60111111111111115         -4.9746900532880507E-020
  0.61111111111111116          1.9408078741737278E-018
  0.62111111111111117          4.0813215500458268E-018
  0.63111111111111118          5.6252682254464664E-018
  0.64111111111111119          5.7507564874544360E-018
  0.65111111111111120          3.8399610006508166E-018
  0.66111111111111120         -2.1837064108214156E-019
  0.67111111111111121         -5.8091459261236354E-018
  0.68111111111111122         -1.1561531545794495E-017
  0.69111111111111123         -1.5578754042992975E-017
  0.70111111111111124         -1.5920199310603839E-017
  0.71111111111111125         -1.1235866402729305E-017
  0.72111111111111126         -1.3742627736494211E-018
  0.73111111111111127          1.2246570269067023E-017
  0.74111111111111128          2.6677079335008800E-017
  0.75111111111111128          3.7948740324385112E-017
  0.76111111111111129          4.1980233341511357E-017
  0.77111111111111130          3.5660474199932719E-017
  0.78111111111111109          1.7820200090413641E-017
  0.79111111111111110         -1.0169098716014581E-017
  0.80111111111111111         -4.4309507772011679E-017
  0.81111111111111112         -7.8381007719899434E-017
  0.82111111111111112         -1.0468500047450599E-016
  0.83111111111111113         -1.1495912631289643E-016
  0.84111111111111114         -1.0141300484349124E-016
  0.85111111111111115         -5.8029426505559165E-017
  0.86111111111111116          1.7589289313697013E-017
  0.87111111111111117          1.2164691465261216E-016
  0.88111111111111118          2.4111332827097534E-016
  0.89111111111111119          3.5123790815829944E-016
  0.90111111111111120          4.1544597017549080E-016
  0.91111111111111120          3.8985159912478123E-016
  0.92111111111111121          2.3408898991851383E-016
  0.93111111111111122         -7.1660674786163417E-017
  0.94111111111111123         -5.0659865317065388E-016
  0.95111111111111124         -9.9284098703641879E-016
  0.96111111111111125         -1.3917763527760123E-015
  0.97111111111111126         -1.5224110678574909E-015
  0.98111111111111127         -1.2067216766575763E-015
  0.99111111111111128         -3.3843992853955661E-016
   1.0011111111111113          1.0399701119798849E-015
   1.0111111111111113          2.6787215786592275E-015
   1.0211111111111113          4.1131470991206780E-015
   1.0311111111111111          4.7355443676642961E-015
   1.0411111111111111          3.9569165306808322E-015
   1.0511111111111111          1.4384847141029299E-015
   1.0611111111111111         -2.6641604470212157E-015
   1.0711111111111111         -7.5329833313536078E-015
   1.0811111111111111         -1.1695515839431000E-014
   1.0911111111111111         -1.3286397027338030E-014
   1.1011111111111112         -1.0577370515650174E-014
   1.1111111111111112         -2.6946417746611089E-015
   1.1211111111111114          9.6648382046505936E-015
   1.1311111111111112          2.3789345534176547E-014
   1.1411111111111114          3.5068437953880705E-014
   1.1511111111111112          3.7873167330147034E-014
   1.1611111111111110          2.7209129250366747E-014
   1.1711111111111112          8.6962045722137555E-016
   1.1811111111111110         -3.8484355811699636E-014
   1.1911111111111112         -8.2108588862501303E-014
   1.2011111111111110         -1.1563959425447967E-013
   1.2111111111111112         -1.2179447446240832E-013
   1.2211111111111110         -8.5301381301354506E-014
   1.2311111111111113          7.3378135995372977E-016
   1.2411111111111111          1.2864857020390003E-013
   1.2511111111111113          2.7245764780588211E-013
   1.2611111111111111          3.8879847692047109E-013
   1.2711111111111113          4.2421499798182827E-013
   1.2811111111111111          3.2892108091028827E-013
   1.2911111111111113          7.5086875465143338E-014
   1.3011111111111111         -3.2456334711841728E-013
   1.3111111111111113         -8.0378488153537431E-013
   1.3211111111111111         -1.2418850670048442E-012
   1.3311111111111114         -1.4798331830767619E-012
   1.3411111111111111         -1.3549080477362474E-012
   1.3511111111111114         -7.5014961690295090E-013
   1.3611111111111112          3.5106591028330469E-013
   1.3711111111111114          1.8200950729213572E-012
   1.3811111111111112          3.3648786881834702E-012
   1.3911111111111114          4.5537670856354850E-012
   1.4011111111111112          4.8893714597875171E-012
   1.4111111111111114          3.9286009341499284E-012
   1.4211111111111112          1.4303638568718968E-012
   1.4311111111111110         -2.5017611680194785E-012
   1.4411111111111112         -7.3240085871062455E-012
   1.4511111111111110         -1.2046810597687863E-011
   1.4611111111111112         -1.5350783144629787E-011
   1.4711111111111110         -1.5832956473671445E-011
   1.4811111111111113         -1.2359678384921136E-011
   1.4911111111111111         -4.4674550517265210E-012
   1.5011111111111113          7.2767607911528032E-012
   1.5111111111111111          2.1058871660373235E-011
   1.5211111111111113          3.3839507584954021E-011
   1.5311111111111111          4.1673903911076948E-011
   1.5411111111111113          4.0328792388910628E-011
   1.5511111111111111          2.6119061774521057E-011
   1.5611111111111113         -3.1926193459763663E-012
   1.5711111111111111         -4.7651119161606914E-011
   1.5811111111111114         -1.0476610551313215E-010
   1.5911111111111111         -1.6979613548517847E-010
   1.6011111111111114         -2.3680904459588703E-010
   1.6111111111111112         -3.0054903010778844E-010
   1.6211111111111114         -3.5898012340496166E-010
   1.6311111111111112         -4.1622377766614704E-010
   1.6411111111111114         -4.8547305064872148E-010
   1.6511111111111112         -5.9139870778324166E-010
   1.6611111111111114         -7.7155537514528305E-010
   1.6711111111111112         -1.0763928637302911E-009
   1.6811111111111110         -1.5676283604548757E-009
   1.6911111111111112         -2.3149209216200006E-009
   1.7011111111111110         -3.3908982288721745E-009
   1.7111111111111112         -4.8646451311640249E-009
   1.7211111111111110         -6.7936269942947547E-009
   1.7311111111111113         -9.2133571882868637E-009
   1.7411111111111111         -1.2123529735674765E-008
   1.7511111111111113         -1.5467957581449809E-008
   1.7611111111111111         -1.9103737258774345E-008
   1.7711111111111113         -2.2753019024435162E-008
   1.7811111111111111         -2.5927612057330407E-008
   1.7911111111111113         -2.7812268044158373E-008
   1.8011111111111111         -2.7088040255307533E-008
   1.8111111111111113         -2.1671880290341505E-008
   1.8211111111111111         -8.3411579865355634E-009
   1.8311111111111114          1.7796628171140583E-008
   1.8411111111111111          6.4040825975553162E-008
   1.8511111111111114          1.4110347024143266E-007
   1.8611111111111112          2.6446221568221517E-007
   1.8711111111111114          4.5615800559062336E-007
   1.8811111111111112          7.4716103881655727E-007
   1.8911111111111114          1.1804478390331496E-006
   1.9011111111111112          1.8149755760532571E-006
   1.9111111111111114          2.7307560230838135E-006
   1.9211111111111112          4.0352902033191640E-006
   1.9311111111111110          5.8716609601106029E-006
   1.9411111111111112          8.4286211858852766E-006
   1.9511111111111110          1.1953051398450043E-005
   1.9611111111111112          1.6765206964919344E-005
   1.9711111111111110          2.3277167201740667E-005
   1.9811111111111113          3.2014915632316843E-005
   1.9911111111111111          4.3644464312819764E-005
   2.0011111111111113          5.9002253692597151E-005
   2.0111111111111111          7.9130222729872912E-005
   2.0211111111111113          1.0531525913393125E-004
   2.0311111111111111          1.3913298607803881E-004
   2.0411111111111113          1.8249514687340707E-004
   2.0511111111111111          2.3769943800289184E-004
   2.0611111111111113          3.0748030985705554E-004
   2.0711111111111111          3.9505815948359668E-004
   2.0811111111111114          5.0418404862284660E-004
   2.0911111111111111          6.3917617080733180E-004
   2.1011111111111114          8.0494326539337635E-004
   2.1111111111111112          1.0069897398352623E-003
   2.1211111111111114          1.2513962574303150E-003
   2.1311111111111112          1.5447691548615694E-003
   2.1411111111111114          1.8941522575914860E-003
   2.1511111111111112          2.3068934679031372E-003
   2.1611111111111114          2.7904608286917210E-003
   2.1711111111111112          3.3522031735628843E-003
   2.1811111111111114          3.9990511722862720E-003
   2.1911111111111112          4.7371592372655869E-003
   2.2011111111111110          5.5714906193315983E-003
   2.2111111111111112          6.5053491853177547E-003
   2.2211111111111110          7.5398725457489491E-003
   2.2311111111111113          8.6734993383288383E-003
   2.2411111111111111          9.9014313891530037E-003
   2.2511111111111113          1.1215112172067165E-002
   2.2611111111111111          1.2601752765476704E-002
   2.2711111111111113          1.4043941162526608E-002
   2.2811111111111111          1.5519365668296814E-002
   2.2911111111111113          1.7000682651996613E-002
   2.3011111111111111          1.8455568701028824E-002
   2.3111111111111113          1.9846985116600990E-002
   2.3211111111111111          2.1133672446012497E-002
   2.3311111111111114          2.2270899266004562E-002
   2.3411111111111111          2.3211453109979630E-002
   2.3511111111111114          2.3906882852315903E-002
   2.3611111111111112          2.4308964610099792E-002
   2.3711111111111114          2.4371339008212090E-002
   2.3811111111111112          2.4051293730735779E-002
   2.3911111111111114          2.3311605677008629E-002
   2.4011111111111112          2.2122381255030632E-002
   2.4111111111111114          2.0462803542613983E-002
   2.4211111111111112          1.8322704359889030E-002
   2.4311111111111114          1.5703871846199036E-002
   2.4411111111111112          1.2621018104255199E-002
   2.4511111111111110          9.1023268178105354E-003
   2.4611111111111112          5.1895352080464363E-003
   2.4711111111111110          9.3751016538590193E-004
   2.4811111111111113         -3.5866920370608568E-003
   2.4911111111111111         -8.3052767440676689E-003
   2.5011111111111113         -1.3131623156368732E-002
   2.5111111111111111         -1.7972607165575027E-002
   2.5211111111111113         -2.2731244564056396E-002
   2.5311111111111111         -2.7309557422995567E-002
   2.5411111111111113         -3.1611535698175430E-002
   2.5511111111111111         -3.5546086728572845E-002
   2.5611111111111113         -3.9029840379953384E-002
   2.5711111111111111         -4.1989699006080627E-002
   2.5811111111111114         -4.4365007430315018E-002
   2.5911111111111111         -4.6109288930892944E-002
   2.6011111111111114         -4.7191463410854340E-002
   2.6111111111111112         -4.7596510499715805E-002
   2.6211111111111114         -4.7325562685728073E-002
   2.6311111111111112         -4.6395469456911087E-002
   2.6411111111111114         -4.4837839901447296E-002
   2.6511111111111112         -4.2697641998529434E-002
   2.6611111111111114         -4.0031429380178452E-002
   2.6711111111111112         -3.6905292421579361E-002
   2.6811111111111114         -3.3392623066902161E-002
   2.6911111111111112         -2.9571801424026489E-002
   2.7011111111111110         -2.5523871183395386E-002
   2.7111111111111112         -2.1330319344997406E-002
   2.7211111111111110         -1.7071008682250977E-002
   2.7311111111111113         -1.2822334654629230E-002
   2.7411111111111111         -8.6556309834122658E-003
   2.7511111111111113         -4.6358760446310043E-003
   2.7611111111111111         -8.2068843767046928E-004
   2.7711111111111113          2.7403801213949919E-003
   2.7811111111111111          6.0062715783715248E-003
   2.7911111111111113          8.9445905759930611E-003
   2.8011111111111111          1.1531551368534565E-002
   2.8111111111111113          1.3751732185482979E-002
   2.8211111111111111          1.5597673133015633E-002
   2.8311111111111114          1.7069356516003609E-002
   2.8411111111111111          1.8173592165112495E-002
   2.8511111111111114          1.8923329189419746E-002
   2.8611111111111112          1.9336942583322525E-002
   2.8711111111111114          1.9437467679381371E-002
   2.8811111111111112          1.9251830875873566E-002
   2.8911111111111114          1.8810065463185310E-002
   2.9011111111111112          1.8144523724913597E-002
   2.9111111111111114          1.7289076000452042E-002
   2.9211111111111112          1.6278333961963654E-002
   2.9311111111111114          1.5146875753998756E-002
   2.9411111111111112          1.3928507454693317E-002
   2.9511111111111110          1.2655566446483135E-002
   2.9611111111111112          1.1358296498656273E-002
   2.9711111111111110          1.0064302943646908E-002
   2.9811111111111113          8.7981140241026878E-003
   2.9911111111111111          7.5808633118867874E-003
   3.0011111111111113          6.4300987869501114E-003
   3.0111111111111111          5.3597250953316689E-003
   3.0211111111111113          4.3800733983516693E-003
   3.0311111111111111          3.4980841446667910E-003
   3.0411111111111113          2.7175880968570709E-003
   3.0511111111111111          2.0396520849317312E-003
   3.0611111111111113          1.4629695797339082E-003
   3.0711111111111111          9.8426186013966799E-004
   3.0811111111111114          5.9866899391636252E-004
   3.0911111111111111          3.0011055059731007E-004
   3.1011111111111114          8.1601443525869399E-005
   3.1111111111111112         -6.4481158915441483E-005
   3.1211111111111109         -1.4618248678743839E-004
   3.1311111111111116         -1.7179943097289652E-004
   3.1411111111111114         -1.4974705118220299E-004
   3.1511111111111112         -8.8450935436412692E-005
   3.1611111111111110          3.7452866763487691E-006
   3.1711111111111117          1.1866688146255910E-004
   3.1811111111111114          2.4839577963575721E-004
   3.1911111111111112          3.8536271313205361E-004
   3.2011111111111110          5.2244449034333229E-004
   3.2111111111111108          6.5306416945531964E-004
   3.2211111111111115          7.7129155397415161E-004
   3.2311111111111113          8.7193987565115094E-004
   3.2411111111111111          9.5065450295805931E-004
   3.2511111111111108          1.0039904154837132E-003
   3.2611111111111115          1.0294741950929165E-003
   3.2711111111111113          1.0256465757265687E-003
   3.2811111111111111          9.9208171013742685E-004
   3.2911111111111109          9.2937814770266414E-004
   3.3011111111111116          8.3911995170637965E-004
   3.3111111111111113          7.2380469646304846E-004
   3.3211111111111111          5.8673875173553824E-004
   3.3311111111111109          4.3190139695070684E-004
   3.3411111111111116          2.6378367329016328E-004
   3.3511111111111114          8.7207467004191130E-005
   3.3611111111111112         -9.2863549070898443E-005
   3.3711111111111109         -2.7150960522703826E-004
   3.3811111111111116         -4.4402474304661155E-004
   3.3911111111111114         -6.0605868929997087E-004
   3.4011111111111112         -7.5372139690443873E-004
   3.4111111111111110         -8.8364566909149289E-004
   3.4211111111111117         -9.9300721194595098E-004
   3.4311111111111114         -1.0795082198455930E-003
   3.4411111111111112         -1.1413334868848324E-003
   3.4511111111111110         -1.1770921992138028E-003
   3.4611111111111117         -1.1857580393552780E-003
   3.4711111111111115         -1.1666214559227228E-003
   3.4811111111111113         -1.1192633537575603E-003
   3.4911111111111111         -1.0435570729896426E-003
   3.5011111111111108         -9.3969941372051835E-004
   3.5111111111111115         -8.0826785415410995E-004
   3.5211111111111113         -6.5029598772525787E-004
   3.5311111111111111         -4.6735559590160847E-004
   3.5411111111111109         -2.6163237635046244E-004
   3.5511111111111116         -3.5981825931230560E-005
   3.5611111111111113          2.0604651945177466E-004
   3.5711111111111111          4.6022594324313104E-004
   3.5811111111111109          7.2171661304309964E-004
   3.5911111111111116          9.8517886362969875E-004
   3.6011111111111114          1.2449356727302074E-003
   3.6111111111111112          1.4951799530535936E-003
   3.6211111111111109          1.7302200431004167E-003
   3.6311111111111116          1.9447545055299997E-003
   3.6411111111111114          2.1341645624488592E-003
   3.6511111111111112          2.2948090918362141E-003
   3.6611111111111110          2.4243097286671400E-003
   3.6711111111111117          2.5218084920197725E-003
   3.6811111111111114          2.5881854817271233E-003
   3.6911111111111112          2.6262223254889250E-003
   3.7011111111111110          2.6407025288790464E-003
   3.7111111111111117          2.6384447701275349E-003
   3.7211111111111115          2.6282661128789186E-003
   3.7311111111111113          2.6208793278783560E-003
   3.7411111111111111          2.6287331711500883E-003
   3.7511111111111108          2.6658051647245884E-003
   3.7611111111111115          2.7473601512610912E-003
   3.7711111111111113          2.8896864969283342E-003
   3.7811111111111111          3.1098211184144020E-003
   3.7911111111111109          3.4252693876624107E-003
   3.8011111111111116          3.8537266664206982E-003
   3.8111111111111113          4.4127968139946461E-003
   3.8211111111111111          5.1197102293372154E-003
   3.8311111111111109          5.9910365380346775E-003
   3.8411111111111116          7.0423954166471958E-003
   3.8511111111111114          8.2881636917591095E-003
   3.8611111111111112          9.7411852329969406E-003
   3.8711111111111109          1.1412493884563446E-002
   3.8811111111111116          1.3311055488884449E-002
   3.8911111111111114          1.5443535521626472E-002
   3.9011111111111112          1.7814103513956070E-002
   3.9111111111111110          2.0424276590347290E-002
   3.9211111111111117          2.3272788152098656E-002
   3.9311111111111114          2.6355493813753128E-002
   3.9411111111111112          2.9665267094969749E-002
   3.9511111111111110          3.3191911876201630E-002
   3.9611111111111117          3.6922033876180649E-002
   3.9711111111111115          4.0838908404111862E-002
   3.9811111111111113          4.4922299683094025E-002
   3.9911111111111111          4.9148257821798325E-002
   4.0011111111111113          5.3488913923501968E-002
   4.0111111111111111          5.7912293821573257E-002
   4.0211111111111109          6.2382169067859650E-002
   4.0311111111111106          6.6857978701591492E-002
   4.0411111111111104          7.1294829249382019E-002
   4.0511111111111120          7.5643628835678101E-002
   4.0611111111111118          7.9851284623146057E-002
   4.0711111111111116          8.3861052989959717E-002
   4.0811111111111114          8.7612941861152649E-002
   4.0911111111111111          9.1044209897518158E-002
   4.1011111111111109          9.4089925289154053E-002
   4.1111111111111107          9.6683531999588013E-002
   4.1211111111111105          9.8757483065128326E-002
   4.1311111111111121         0.10024386644363403     
   4.1411111111111119         0.10107506066560745     
   4.1511111111111116         0.10118441283702850     
   4.1611111111111114         0.10050699859857559     
   4.1711111111111112          9.8980344831943512E-002
   4.1811111111111110          9.6545264124870300E-002
   4.1911111111111108          9.3146674335002899E-002
   4.2011111111111106          8.8734455406665802E-002
   4.2111111111111121          8.3264313638210297E-002
   4.2211111111111119          7.6698608696460724E-002
   4.2311111111111117          6.9007150828838348E-002
   4.2411111111111115          6.0167957097291946E-002
   4.2511111111111113          5.0167925655841827E-002
   4.2611111111111111          3.9003450423479080E-002
   4.2711111111111109          2.6681005954742432E-002
   4.2811111111111106          1.3217663392424583E-002
   4.2911111111111104         -1.3583714608103037E-003
   4.3011111111111120         -1.7007250338792801E-002
   4.3111111111111118         -3.3676944673061371E-002
   4.3211111111111116         -5.1302704960107803E-002
   4.3311111111111114         -6.9806508719921112E-002
   4.3411111111111111         -8.9096516370773315E-002
   4.3511111111111109        -0.10906657576560974     
   4.3611111111111107        -0.12959575653076172     
   4.3711111111111105        -0.15054802596569061     
   4.3811111111111121        -0.17177198827266693     
   4.3911111111111119        -0.19310092926025391     
   4.4011111111111116        -0.21435298025608063     
   4.4111111111111114        -0.23533163964748383     
   4.4211111111111112        -0.25582659244537354     
   4.4311111111111110        -0.27561500668525696     
   4.4411111111111108        -0.29446315765380859     
   4.4511111111111106        -0.31212866306304932     
   4.4611111111111121        -0.32836329936981201     
   4.4711111111111119        -0.34291625022888184     
   4.4811111111111117        -0.35553807020187378     
   4.4911111111111115        -0.36598518490791321     
   4.5011111111111113        -0.37402486801147461     
   4.5111111111111111        -0.37944051623344421     
   4.5211111111111109        -0.38203734159469604     
   4.5311111111111106        -0.38164797425270081     
   4.5411111111111104        -0.37813818454742432     
   4.5511111111111120        -0.37141206860542297     