 -0.88888888888888884          6.1076335571637504E-015
 -0.87888888888888883          3.4910595058225760E-014
 -0.86888888888888882         -8.5053364972200764E-015
 -0.85888888888888881         -1.2111385299610339E-013
 -0.84888888888888880         -1.5993194995341659E-013
 -0.83888888888888880         -3.1193968222153817E-016
 -0.82888888888888879          2.8831779086586906E-013
 -0.81888888888888878          4.7117241748842464E-013
 -0.80888888888888888          3.9521147856061423E-013
 -0.79888888888888887          1.9790931588860305E-013
 -0.78888888888888886          1.9019035207411966E-013
 -0.77888888888888885          4.3432334009656237E-013
 -0.76888888888888884          4.2786718720995431E-013
 -0.75888888888888884         -6.4293037040086265E-013
 -0.74888888888888883         -3.0759698173982164E-012
 -0.73888888888888882         -5.8936922182895035E-012
 -0.72888888888888881         -6.9986369130581316E-012
 -0.71888888888888880         -4.4868063257819113E-012
 -0.70888888888888890          1.7220725713473772E-012
 -0.69888888888888889          9.4202987424574225E-012
 -0.68888888888888888          1.5701195552053626E-011
 -0.67888888888888888          1.9767935552361671E-011
 -0.66888888888888887          2.4471915813228939E-011
 -0.65888888888888886          3.4036485435651187E-011
 -0.64888888888888885          4.7688023668834845E-011
 -0.63888888888888884          5.2627072838484779E-011
 -0.62888888888888883          2.2699541898929532E-011
 -0.61888888888888882         -7.1195126183365431E-011
 -0.60888888888888881         -2.3785984293311913E-010
 -0.59888888888888880         -4.3746592459648070E-010
 -0.58888888888888880         -5.6539228854290968E-010
 -0.57888888888888879         -4.7003911873844118E-010
 -0.56888888888888878         -1.9229942291310032E-011
 -0.55888888888888877          7.9341416769906914E-010
 -0.54888888888888876          1.7462257195788311E-009
 -0.53888888888888875          2.3665696069485875E-009
 -0.52888888888888885          2.0618637908143000E-009
 -0.51888888888888884          4.2267409017249236E-010
 -0.50888888888888884         -2.3947086535969220E-009
 -0.49888888888888883         -5.4180522290891986E-009
 -0.48888888888888882         -6.9971446414740512E-009
 -0.47888888888888881         -5.4738618082694757E-009
 -0.46888888888888886         -2.4771198980921838E-010
 -0.45888888888888885          7.2450507815347009E-009
 -0.44888888888888884          1.3323896652650546E-008
 -0.43888888888888883          1.3163097278834357E-008
 -0.42888888888888882          3.1609035389124074E-009
 -0.41888888888888881         -1.6264626978568231E-008
 -0.40888888888888886         -3.8921456280149869E-008
 -0.39888888888888885         -5.3583789849653840E-008
 -0.38888888888888884         -4.7808196512733048E-008
 -0.37888888888888883         -1.3922304198388247E-008
 -0.36888888888888882          4.5139927351556253E-008
 -0.35888888888888881          1.1303993829869796E-007
 -0.34888888888888880          1.6237699185239762E-007
 -0.33888888888888880          1.6235397026775900E-007
 -0.32888888888888879          8.9728132479649503E-008
 -0.31888888888888878         -6.0458596351509186E-008
 -0.30888888888888888         -2.6792920948537358E-007
 -0.29888888888888887         -4.8634217364451615E-007
 -0.28888888888888886         -6.4925620790745597E-007
 -0.27888888888888885         -6.8235749495215714E-007
 -0.26888888888888884         -5.2096169156357064E-007
 -0.25888888888888884         -1.3148088839898264E-007
 -0.24888888888888883          4.6571182110710652E-007
 -0.23888888888888882          1.1773041705964715E-006
 -0.22888888888888881          1.8305156572751002E-006
 -0.21888888888888880          2.1891003143537091E-006
 -0.20888888888888879          1.9990850432805018E-006
 -0.19888888888888878          1.0630280939949444E-006
 -0.18888888888888877         -6.7067679765386856E-007
 -0.17888888888888888         -3.0285070806712611E-006
 -0.16888888888888887         -5.5729919949953910E-006
 -0.15888888888888886         -7.6302530942484736E-006
 -0.14888888888888885         -8.3952872955705971E-006
 -0.13888888888888884         -7.1060339905670844E-006
 -0.12888888888888883         -3.2573361750110053E-006
 -0.11888888888888882          3.1881693303148495E-006
 -0.10888888888888881          1.1640994671324734E-005
  -9.8888888888888804E-002     2.0824329112656415E-005
  -8.8888888888888795E-002     2.8850572562078014E-005
  -7.8888888888888786E-002     3.3458734833402559E-005
  -6.8888888888888777E-002     3.2413568987976760E-005
  -5.8888888888888768E-002     2.4033861336647533E-005
  -4.8888888888888871E-002     7.7748800322297029E-006
  -3.8888888888888862E-002    -1.5252786397468299E-005
  -2.8888888888888853E-002    -4.1974217310780659E-005
  -1.8888888888888844E-002    -6.7395238147582859E-005
  -8.8888888888888351E-003    -8.5103740275371820E-005
   1.1111111111111738E-003    -8.8249864347744733E-005
   1.1111111111111183E-002    -7.0926464104559273E-005
   2.1111111111111192E-002    -2.9772245397907682E-005
   3.1111111111111200E-002     3.4452295949449763E-005
   4.1111111111111209E-002     1.1559855192899704E-004
   5.1111111111111218E-002     2.0144156587775797E-004
   6.1111111111111227E-002     2.7378430240787566E-004
   7.1111111111111125E-002     3.0947959749028087E-004
   8.1111111111111134E-002     2.8237633523531258E-004
   9.1111111111111143E-002     1.6605481505393982E-004
  0.10111111111111115         -6.2936844187788665E-005
  0.11111111111111116         -4.2177058639936149E-004
  0.12111111111111117         -9.1846595751121640E-004
  0.13111111111111118         -1.5499742003157735E-003
  0.14111111111111119         -2.3016352206468582E-003
  0.15111111111111120         -3.1482186168432236E-003
  0.16111111111111120         -4.0564993396401405E-003
  0.17111111111111121         -4.9890466034412384E-003
  0.18111111111111122         -5.9086917899549007E-003
  0.19111111111111123         -6.7830160260200500E-003
  0.20111111111111124         -7.5881830416619778E-003
  0.21111111111111125         -8.3115212619304657E-003
  0.22111111111111126         -8.9524220675230026E-003
  0.23111111111111127         -9.5213418826460838E-003
  0.24111111111111128         -1.0036965832114220E-002
  0.25111111111111128         -1.0521882213652134E-002
  0.26111111111111129         -1.0997397825121880E-002
  0.27111111111111108         -1.1478321626782417E-002
  0.28111111111111109         -1.1968609876930714E-002
  0.29111111111111110         -1.2458674609661102E-002
  0.30111111111111111         -1.2924856506288052E-002
  0.31111111111111112         -1.3331202790141106E-002
  0.32111111111111112         -1.3633267953991890E-002
  0.33111111111111113         -1.3783326372504234E-002
  0.34111111111111114         -1.3736189343035221E-002
  0.35111111111111115         -1.3454762287437916E-002
  0.36111111111111116         -1.2914584018290043E-002
  0.37111111111111117         -1.2106725946068764E-002
  0.38111111111111118         -1.1038691736757755E-002
  0.39111111111111119         -9.7332177683711052E-003
  0.40111111111111120         -8.2251904532313347E-003
  0.41111111111111120         -6.5572024323046207E-003
  0.42111111111111121         -4.7745262272655964E-003
  0.43111111111111122         -2.9203945305198431E-003
  0.44111111111111123         -1.0324033210054040E-003
  0.45111111111111124          8.5941213183104992E-004
  0.46111111111111125          2.7326818089932203E-003
  0.47111111111111126          4.5712459832429886E-003
  0.48111111111111127          6.3627013005316257E-003
  0.49111111111111128          8.0956397578120232E-003
  0.50111111111111128          9.7572132945060730E-003
  0.51111111111111129          1.1331507936120033E-002
  0.52111111111111108          1.2798990122973919E-002
  0.53111111111111109          1.4137116260826588E-002
  0.54111111111111110          1.5322025865316391E-002
  0.55111111111111111          1.6331063583493233E-002
  0.56111111111111112          1.7145713791251183E-002
  0.57111111111111112          1.7754355445504189E-002
  0.58111111111111113          1.8154203891754150E-002
  0.59111111111111114          1.8351906910538673E-002
  0.60111111111111115          1.8362550064921379E-002
  0.61111111111111116          1.8207233399152756E-002
  0.62111111111111117          1.7909726127982140E-002
  0.63111111111111118          1.7492989078164101E-002
  0.64111111111111119          1.6976268962025642E-002
  0.65111111111111120          1.6373297199606895E-002
  0.66111111111111120          1.5691760927438736E-002
  0.67111111111111121          1.4933974482119083E-002
  0.68111111111111122          1.4098478481173515E-002
  0.69111111111111123          1.3182252645492554E-002
  0.70111111111111124          1.2183231301605701E-002
  0.71111111111111125          1.1102757416665554E-002
  0.72111111111111126          9.9475719034671783E-003
  0.73111111111111127          8.7308697402477264E-003
  0.74111111111111128          7.4720759876072407E-003
  0.75111111111111128          6.1952206306159496E-003
  0.76111111111111129          4.9262060783803463E-003
  0.77111111111111130          3.6896038800477982E-003
  0.78111111111111109          2.5057995226234198E-003
  0.79111111111111110          1.3891997514292598E-003
  0.80111111111111111          3.4785756724886596E-004
  0.81111111111111112         -6.1555969296023250E-004
  0.82111111111111112         -1.5018804697319865E-003
  0.83111111111111113         -2.3131601046770811E-003
  0.84111111111111114         -3.0504912137985229E-003
  0.85111111111111115         -3.7121856585144997E-003
  0.86111111111111116         -4.2925034649670124E-003
  0.87111111111111117         -4.7811055555939674E-003
  0.88111111111111118         -5.1634600386023521E-003
  0.89111111111111119         -5.4224124178290367E-003
  0.90111111111111120         -5.5409274064004421E-003
  0.91111111111111120         -5.5056470446288586E-003
  0.92111111111111121         -5.3105326369404793E-003
  0.93111111111111122         -4.9596624448895454E-003
  0.94111111111111123         -4.4684051536023617E-003
  0.95111111111111124         -3.8626324385404587E-003
  0.96111111111111125         -3.1761962454766035E-003
  0.97111111111111126         -2.4473362136632204E-003
  0.98111111111111127         -1.7148081678897142E-003
  0.99111111111111128         -1.0143632534891367E-003
   1.0011111111111113         -3.7589354906231165E-004
   1.0111111111111113          1.7866955022327602E-004
   1.0211111111111113          6.3666113419458270E-004
   1.0311111111111111          9.9503900855779648E-004
   1.0411111111111111          1.2595523148775101E-003
   1.0511111111111111          1.4425961999222636E-003
   1.0611111111111111          1.5599766047671437E-003
   1.0711111111111111          1.6272471984848380E-003
   1.0811111111111111          1.6565617406740785E-003
   1.0911111111111111          1.6549014253541827E-003
   1.1011111111111112          1.6240763943642378E-003
   1.1111111111111112          1.5622632345184684E-003
   1.1211111111111114          1.4663407346233726E-003
   1.1311111111111112          1.3341529993340373E-003
   1.1411111111111114          1.1660938616842031E-003
   1.1511111111111112          9.6586858853697777E-004
   1.1611111111111110          7.4065179796889424E-004
   1.1711111111111112          5.0093408208340406E-004
   1.1811111111111110          2.6013690512627363E-004
   1.1911111111111112          3.3807271393015981E-005
   1.2011111111111110         -1.6187384608201683E-004
   1.2111111111111112         -3.1228747684508562E-004
   1.2211111111111110         -4.0684686973690987E-004
   1.2311111111111113         -4.4094791519455612E-004
   1.2411111111111111         -4.1660192073322833E-004
   1.2511111111111113         -3.4139282070100307E-004
   1.2611111111111111         -2.2608076687902212E-004
   1.2711111111111113         -8.1741600297391415E-005
   1.2811111111111111          8.2534279499668628E-005
   1.2911111111111113          2.6071912725456059E-004
   1.3011111111111111          4.4967755093239248E-004
   1.3111111111111113          6.4826075686141849E-004
   1.3211111111111111          8.5632415721192956E-004
   1.3311111111111114          1.0740457801148295E-003
   1.3411111111111111          1.3014596188440919E-003
   1.3511111111111114          1.5378299867734313E-003
   1.3611111111111112          1.7806009855121374E-003
   1.3711111111111114          2.0240978337824345E-003
   1.3811111111111112          2.2586199920624495E-003
   1.3911111111111114          2.4706872645765543E-003
   1.4011111111111112          2.6448178105056286E-003
   1.4111111111111114          2.7664958033710718E-003
   1.4211111111111112          2.8253325726836920E-003
   1.4311111111111110          2.8172386810183525E-003
   1.4411111111111112          2.7448395267128944E-003
   1.4511111111111110          2.6161654386669397E-003
   1.4611111111111112          2.4423797149211168E-003
   1.4711111111111110          2.2355651017278433E-003
   1.4811111111111113          2.0072697661817074E-003
   1.4911111111111111          1.7678693402558565E-003
   1.5011111111111113          1.5262657543644309E-003
   1.5111111111111111          1.2893832754343748E-003
   1.5211111111111113          1.0613304330036044E-003
   1.5311111111111111          8.4267399506643414E-004
   1.5411111111111113          6.3056056387722492E-004
   1.5511111111111111          4.2016393854282796E-004
   1.5611111111111113          2.0722897897940129E-004
   1.5711111111111111         -9.2461596068460494E-006
   1.5811111111111114         -2.2541792714037001E-004
   1.5911111111111111         -4.3291135807521641E-004
   1.6011111111111114         -6.2095461180433631E-004
   1.6111111111111112         -7.7936553861945868E-004
   1.6211111111111114         -9.0106745483353734E-004
   1.6311111111111112         -9.8318292293697596E-004
   1.6411111111111114         -1.0266037425026298E-003
   1.6511111111111112         -1.0347358183935285E-003
   1.6611111111111114         -1.0123846586793661E-003
   1.6711111111111112         -9.6536119235679507E-004
   1.6811111111111110         -9.0064830146729946E-004
   1.6911111111111112         -8.2641129847615957E-004
   1.7011111111111110         -7.5116229709237814E-004
   1.7111111111111112         -6.8200158420950174E-004
   1.7211111111111110         -6.2264781445264816E-004
   1.7311111111111113         -5.7238282170146704E-004
   1.7411111111111111         -5.2673538448289037E-004
   1.7511111111111113         -4.7984084812924266E-004
   1.7611111111111111         -4.2745430255308747E-004
   1.7711111111111113         -3.6916637327522039E-004
   1.7811111111111111         -3.0875651282258332E-004
   1.7911111111111113         -2.5261478731408715E-004
   1.8011111111111111         -2.0717483130283654E-004
   1.8111111111111113         -1.7672982357908040E-004
   1.8211111111111111         -1.6261108976323158E-004
   1.8311111111111114         -1.6377870633732527E-004
   1.8411111111111111         -1.7801420472096652E-004
   1.8511111111111114         -2.0266867068130523E-004
   1.8611111111111112         -2.3443260579369962E-004
   1.8711111111111114         -2.6848685229197145E-004
   1.8811111111111112         -2.9803387587890029E-004
   1.8911111111111114         -3.1512771965935826E-004
   1.9011111111111112         -3.1292621861211956E-004
   1.9111111111111114         -2.8847617795690894E-004
   1.9211111111111112         -2.4458169355057180E-004
   1.9311111111111110         -1.8960413581226021E-004
   1.9411111111111112         -1.3507052790373564E-004
   1.9511111111111110         -9.2123707872815430E-005
   1.9611111111111112         -6.8432826083153486E-005
   1.9711111111111110         -6.6844258981291205E-005
   1.9811111111111113         -8.6008978541940451E-005
   1.9911111111111111         -1.2213009176775813E-004
   2.0011111111111113         -1.7050759925041348E-004
   2.0111111111111111         -2.2597782663069665E-004
   2.0211111111111113         -2.8233564808033407E-004
   2.0311111111111111         -3.3170182723551989E-004
   2.0411111111111113         -3.6495111999101937E-004
   2.0511111111111111         -3.7362470175139606E-004
   2.0611111111111113         -3.5265946644358337E-004
   2.0711111111111111         -3.0250899726524949E-004
   2.0811111111111114         -2.2934302978683263E-004
   2.0911111111111111         -1.4298241876531392E-004
   2.1011111111111114         -5.3478957852348685E-005
   2.1111111111111112          3.1988583941711113E-005
   2.1211111111111114          1.1044354323530570E-004
   2.1311111111111112          1.8226723477710038E-004
   2.1411111111111114          2.4903504527173936E-004
   2.1511111111111112          3.1155315809883177E-004
   2.1611111111111114          3.6930246278643608E-004
   2.1711111111111112          4.2143272003158927E-004
   2.1811111111111114          4.6835042303428054E-004
   2.1911111111111112          5.1253190031275153E-004
   2.2011111111111110          5.5774050997570157E-004
   2.2111111111111112          6.0696742730215192E-004
   2.2211111111111110          6.6038582008332014E-004
   2.2311111111111113          7.1474513970315456E-004
   2.2411111111111111          7.6480919960886240E-004
   2.2511111111111113          8.0616667401045561E-004
   2.2611111111111111          8.3782681031152606E-004
   2.2711111111111113          8.6306437151506543E-004
   2.2811111111111111          8.8798376964405179E-004
   2.2911111111111113          9.1861869441345334E-004
   2.3011111111111111          9.5822702860459685E-004
   2.3111111111111113          1.0062532965093851E-003
   2.3211111111111111          1.0593486949801445E-003
   2.3311111111111114          1.1135542299598455E-003
   2.3411111111111111          1.1660921154543757E-003
   2.3511111111111114          1.2155891163274646E-003
   2.3611111111111112          1.2607028475031257E-003
   2.3711111111111114          1.2982838088646531E-003
   2.3811111111111112          1.3225972652435303E-003
   2.3911111111111114          1.3264834415167570E-003
   2.4011111111111112          1.3040577759966254E-003
   2.4111111111111114          1.2534699635580182E-003
   2.4211111111111112          1.1780697386711836E-003
   2.4311111111111114          1.0852032573893666E-003
   2.4411111111111112          9.8324636928737164E-004
   2.4511111111111110          8.7850238196551800E-004
   2.4611111111111112          7.7360880095511675E-004
   2.4711111111111110          6.6810956923291087E-004
   2.4811111111111113          5.6049280101433396E-004
   2.4911111111111111          4.5014527859166265E-004
   2.5011111111111113          3.3786299172788858E-004
   2.5111111111111111          2.2464823268819600E-004
   2.5211111111111113          1.0978186764987186E-004
   2.5311111111111111         -1.0249670594930649E-005
   2.5411111111111113         -1.4087741146795452E-004
   2.5511111111111111         -2.8678809758275747E-004
   2.5611111111111113         -4.4886884279549122E-004
   2.5711111111111111         -6.2253564829006791E-004
   2.5811111111111114         -7.9850084148347378E-004
   2.5911111111111111         -9.6563965780660510E-004
   2.6011111111111114         -1.1144168674945831E-003
   2.6111111111111112         -1.2390842894092202E-003
   2.6211111111111114         -1.3376944698393345E-003
   2.6311111111111112         -1.4103513676673174E-003
   2.6411111111111114         -1.4571561478078365E-003
   2.6511111111111112         -1.4773432631045580E-003
   2.6611111111111114         -1.4701534528285265E-003
   2.6711111111111112         -1.4366969699040055E-003
   2.6811111111111114         -1.3812871184200048E-003
   2.6911111111111112         -1.3109956635162234E-003
   2.7011111111111110         -1.2333309277892113E-003
   2.7111111111111112         -1.1532164644449949E-003
   2.7211111111111110         -1.0710164206102490E-003
   2.7311111111111113         -9.8281539976596832E-004
   2.7411111111111111         -8.8284682715311646E-004
   2.7511111111111113         -7.6669087866321206E-004
   2.7611111111111111         -6.3343974761664867E-004
   2.7711111111111113         -4.8571889055892825E-004
   2.7811111111111111         -3.2780802575871348E-004
   2.7911111111111113         -1.6326252080034465E-004
   2.8011111111111111          6.3370052885147743E-006
   2.8111111111111113          1.8070680380333215E-004
   2.8211111111111111          3.5878183552995324E-004
   2.8311111111111114          5.3672550711780787E-004
   2.8411111111111111          7.0748396683484316E-004
   2.8511111111111114          8.6234690388664603E-004
   2.8611111111111112          9.9367031361907721E-004
   2.8711111111111114          1.0971539886668324E-003
   2.8811111111111112          1.1723418720066547E-003
   2.8911111111111114          1.2211492285132408E-003
   2.9011111111111112          1.2454778188839555E-003
   2.9111111111111114          1.2455418473109603E-003
   2.9211111111111112          1.2200319906696677E-003
   2.9311111111111114          1.1680121533572674E-003
   2.9411111111111112          1.0912744328379631E-003
   2.9511111111111110          9.9553179461508989E-004
   2.9611111111111112          8.8952743681147695E-004
   2.9711111111111110          7.8243989264592528E-004
   2.9811111111111113          6.8102777004241943E-004
   2.9911111111111111          5.8811140479519963E-004
   3.0011111111111113          5.0314154941588640E-004
   3.0111111111111111          4.2431030306033790E-004
   3.0211111111111113          3.5075069172307849E-004
   3.0311111111111111          2.8341909637674689E-004
   3.0411111111111113          2.2420781897380948E-004
   3.0511111111111111          1.7405602557118982E-004
   3.0611111111111113          1.3151252642273903E-004
   3.0711111111111111          9.2909736849833280E-005
   3.0811111111111114          5.4230560635915026E-005
   3.0911111111111111          1.3597375982499216E-005
   3.1011111111111114         -2.7159496312378906E-005
   3.1111111111111112         -6.2876832089386880E-005
   3.1211111111111109         -8.7217544205486774E-005
   3.1311111111111116         -9.5367206085938960E-005
   3.1411111111111114         -8.5720108472742140E-005
   3.1511111111111112         -5.9674912336049601E-005
   3.1611111111111110         -1.9856408471241593E-005
   3.1711111111111117          3.1965060770744458E-005
   3.1811111111111114          9.5873641839716583E-005
   3.1911111111111112          1.7312589625362307E-004
   3.2011111111111110          2.6433134917169809E-004
   3.2111111111111108          3.6779654328711331E-004
   3.2211111111111115          4.7921322402544320E-004
   3.2311111111111113          5.9296487597748637E-004
   3.2411111111111111          7.0423586294054985E-004
   3.2511111111111108          8.1055582268163562E-004
   3.2611111111111115          9.1175764100626111E-004
   3.2711111111111113          1.0083514498546720E-003
   3.2811111111111111          1.0993510950356722E-003
   3.2911111111111109          1.1809662682935596E-003
   3.3011111111111116          1.2470521032810211E-003
   3.3111111111111113          1.2911187950521708E-003
   3.3211111111111111          1.3087469851598144E-003
   3.3311111111111109          1.2990274699404836E-003
   3.3411111111111116          1.2642724905163050E-003
   3.3511111111111114          1.2083115288987756E-003
   3.3611111111111112          1.1344967642799020E-003
   3.3711111111111109          1.0446032974869013E-003
   3.3811111111111116          9.3911035219207406E-004
   3.3911111111111114          8.1838050391525030E-004
   3.4011111111111112          6.8366952473297715E-004
   3.4111111111111110          5.3707347251474857E-004
   3.4211111111111117          3.8032908923923969E-004
   3.4311111111111114          2.1327343711163849E-004
   3.4411111111111112          3.3134416298707947E-005
   3.4511111111111110         -1.6459537437185645E-004
   3.4611111111111117         -3.8389887777157128E-004
   3.4711111111111115         -6.2566617270931602E-004
   3.4811111111111113         -8.8614330161362886E-004
   3.4911111111111111         -1.1571864597499371E-003
   3.5011111111111108         -1.4281210023909807E-003
   3.5111111111111115         -1.6881832852959633E-003
   3.5211111111111113         -1.9283522851765156E-003
   3.5311111111111111         -2.1419243421405554E-003
   3.5411111111111109         -2.3240507580339909E-003
   3.5511111111111116         -2.4710672441869974E-003
   3.5611111111111113         -2.5804166216403246E-003
   3.5711111111111111         -2.6513594202697277E-003
   3.5811111111111109         -2.6859210338443518E-003
   3.5911111111111116         -2.6891699526458979E-003
   3.6011111111111114         -2.6682200841605663E-003
   3.6111111111111112         -2.6301185134798288E-003
   3.6211111111111109         -2.5795206893235445E-003
   3.6311111111111116         -2.5172827299684286E-003
   3.6411111111111114         -2.4406530428677797E-003
   3.6511111111111112         -2.3448946885764599E-003
   3.6611111111111110         -2.2254404611885548E-003
   3.6711111111111117         -2.0795040763914585E-003
   3.6811111111111114         -1.9065274391323328E-003
   3.6911111111111112         -1.7076029907912016E-003
   3.7011111111111110         -1.4845859259366989E-003
   3.7111111111111117         -1.2396384263411164E-003
   3.7211111111111115         -9.7547366749495268E-004
   3.7311111111111113         -6.9593143416568637E-004
   3.7411111111111111         -4.0618842467665672E-004
   3.7511111111111108         -1.1210875527467579E-004
   3.7611111111111115          1.8115471175406128E-004
   3.7711111111111113          4.7060279757715762E-004
   3.7811111111111111          7.5599609408527613E-004
   3.7911111111111109          1.0391308460384607E-003
   3.8011111111111116          1.3220100663602352E-003
   3.8111111111111113          1.6047487733885646E-003
   3.8211111111111111          1.8841885030269623E-003
   3.8311111111111109          2.1537863649427891E-003
   3.8411111111111116          2.4046665057539940E-003
   3.8511111111111114          2.6271881069988012E-003
   3.8611111111111112          2.8123110532760620E-003
   3.8711111111111109          2.9523950070142746E-003
   3.8811111111111116          3.0415817163884640E-003
   3.8911111111111114          3.0761866364628077E-003
   3.9011111111111112          3.0553962569683790E-003
   3.9111111111111110          2.9821333009749651E-003
   3.9211111111111117          2.8635456692427397E-003
   3.9311111111111114          2.7105249464511871E-003
   3.9411111111111112          2.5360414292663336E-003
   3.9511111111111110          2.3527008015662432E-003
   3.9611111111111117          2.1703839302062988E-003
   3.9711111111111115          1.9948594272136688E-003
   3.9811111111111113          1.8278048373758793E-003
   3.9911111111111111          1.6680271364748478E-003
   4.0011111111111113          1.5131891705095768E-003
   4.0111111111111111          1.3612884795293212E-003
   4.0211111111111109          1.2114733690395951E-003
   4.0311111111111106          1.0642491979524493E-003
   4.0411111111111104          9.2141702771186829E-004
   4.0511111111111120          7.8602955909445882E-004
   4.0611111111111118          6.6234928090125322E-004
   4.0711111111111116          5.5552046978846192E-004
   4.0811111111111114          4.7066534170880914E-004
   4.0911111111111111          4.1142789996229112E-004
   4.1011111111111109          3.7842112942598760E-004
   4.1111111111111107          3.6828071461059153E-004
   4.1211111111111105          3.7388826604001224E-004
   4.1311111111111121          3.8583774585276842E-004
   4.1411111111111119          3.9464951260015368E-004
   4.1511111111111116          3.9290927816182375E-004
   4.1611111111111114          3.7660516682080925E-004
   4.1711111111111112          3.4537419560365379E-004
   4.1811111111111110          3.0187418451532722E-004
   4.1911111111111108          2.5077446480281651E-004
   4.2011111111111106          1.9779014110099524E-004
   4.2111111111111121          1.4888565056025982E-004
   4.2211111111111119          1.0950087744276971E-004
   4.2311111111111117          8.3623643149621785E-005
   4.2411111111111115          7.2762202762532979E-005
   4.2511111111111113          7.5177209510002285E-005
   4.2611111111111111          8.5854830103926361E-005
   4.2711111111111109          9.7498581453692168E-005
   4.2811111111111106          1.0236578964395449E-004
   4.2911111111111104          9.4335315225180238E-005
   4.3011111111111120          7.0440481067635119E-005
   4.3111111111111118          3.1340568966697901E-005
   4.3211111111111116         -1.9297462131362408E-005
   4.3311111111111114         -7.6068587077315897E-005
   4.3411111111111111         -1.3313580711837858E-004
   4.3511111111111109         -1.8513869144953787E-004
   4.3611111111111107         -2.2764601453673095E-004
   4.3711111111111105         -2.5739325792528689E-004
   4.3811111111111121         -2.7257113833911717E-004
   4.3911111111111119         -2.7319506625644863E-004
   4.4011111111111116         -2.6128915487788618E-004
   4.4111111111111114         -2.4051652872003615E-004
   4.4211111111111112         -2.1509376529138535E-004
   4.4311111111111110         -1.8824142171069980E-004
   4.4411111111111108         -1.6077836335171014E-004
   4.4511111111111106         -1.3051716086920351E-004
   4.4611111111111121         -9.2796784883830696E-005
   4.4711111111111119         -4.1966934077208862E-005
   4.4811111111111117          2.6785717636812478E-005
   4.4911111111111115          1.1596547847148031E-004
   4.5011111111111113          2.2506933601107448E-004
   4.5111111111111111          3.5063919494859874E-004
   4.5211111111111109          4.8671904369257390E-004
   4.5311111111111106          6.2535569304600358E-004
   4.5411111111111104          7.5703754555433989E-004
   4.5511111111111120          8.7126973085105419E-004