 -0.88888888888888884          0.0000000000000000     
 -0.87888888888888883          0.0000000000000000     
 -0.86888888888888882          0.0000000000000000     
 -0.85888888888888881          0.0000000000000000     
 -0.84888888888888880          0.0000000000000000     
 -0.83888888888888880          0.0000000000000000     
 -0.82888888888888879          0.0000000000000000     
 -0.81888888888888878          0.0000000000000000     
 -0.80888888888888888          0.0000000000000000     
 -0.79888888888888887          0.0000000000000000     
 -0.78888888888888886          0.0000000000000000     
 -0.77888888888888885          0.0000000000000000     
 -0.76888888888888884          6.2171162338169438E-038
 -0.75888888888888884          4.7097300590170578E-037
 -0.74888888888888883          1.5464579184677797E-036
 -0.73888888888888882          1.6853874462668839E-036
 -0.72888888888888881         -4.1416617775663237E-036
 -0.71888888888888880         -1.4551497948211239E-035
 -0.70888888888888890          9.4481606836117256E-036
 -0.69888888888888889          1.5244641852703654E-034
 -0.68888888888888888          3.9566754139594334E-034
 -0.67888888888888888          2.4230483420599044E-034
 -0.66888888888888887         -1.4342669425283366E-033
 -0.65888888888888886         -5.1081213544158047E-033
 -0.64888888888888885         -7.1251928859520620E-033
 -0.63888888888888884          3.0835964540113648E-033
 -0.62888888888888883          3.6507004792541307E-032
 -0.61888888888888882          8.0685044742206944E-032
 -0.60888888888888881          6.9240549292036235E-032
 -0.59888888888888880         -1.0841035441772124E-031
 -0.58888888888888880         -4.9342414512771645E-031
 -0.57888888888888879         -8.4295922411591092E-031
 -0.56888888888888878         -4.9521917202119612E-031
 -0.55888888888888877          1.3291404902713748E-030
 -0.54888888888888876          4.5344470768845344E-030
 -0.53888888888888875          6.8435392790748418E-030
 -0.52888888888888885          3.5489509812907394E-030
 -0.51888888888888884         -9.8300389710677485E-030
 -0.50888888888888884         -3.1452617709358688E-029
 -0.49888888888888883         -4.6701802999073168E-029
 -0.48888888888888882         -2.8627832185801624E-029
 -0.47888888888888881          4.6926703468328987E-029
 -0.46888888888888886          1.7129700000453742E-028
 -0.45888888888888885          2.7351818736356906E-028
 -0.44888888888888884          2.2228717491428043E-028
 -0.43888888888888883         -1.1017967155703655E-028
 -0.42888888888888882         -7.2199237681064393E-028
 -0.41888888888888881         -1.3500634095058416E-027
 -0.40888888888888886         -1.4461137728783107E-027
 -0.39888888888888885         -3.7828576707269658E-028
 -0.38888888888888884          2.1130669718865048E-027
 -0.37888888888888883          5.3603333473220967E-027
 -0.36888888888888882          7.4723023465473064E-027
 -0.35888888888888881          5.7366993474262281E-027
 -0.34888888888888880         -2.0232154066330405E-027
 -0.33888888888888880         -1.5387402179956482E-026
 -0.32888888888888879         -2.9510362017944746E-026
 -0.31888888888888878         -3.4982662384071705E-026
 -0.30888888888888888         -2.0729759282363657E-026
 -0.29888888888888887          1.9788865467332717E-026
 -0.28888888888888886          8.0799743818650914E-026
 -0.27888888888888885          1.3875697242073769E-025
 -0.26888888888888884          1.5423941539158979E-025
 -0.25888888888888884          8.4973754779595017E-026
 -0.24888888888888883         -9.0563056160215479E-026
 -0.23888888888888882         -3.4606645054324706E-025
 -0.22888888888888881         -5.9018327870889883E-025
 -0.21888888888888880         -6.7467585298821231E-025
 -0.20888888888888879         -4.3845939283263912E-025
 -0.19888888888888878          2.1495823648167737E-025
 -0.18888888888888877          1.2267912189052805E-024
 -0.17888888888888888          2.3149730686607612E-024
 -0.16888888888888887          2.9711495417758618E-024
 -0.15888888888888886          2.5573030529203775E-024
 -0.14888888888888885          5.1540237103376122E-025
 -0.13888888888888884         -3.3270035128297024E-024
 -0.12888888888888883         -8.4089503827638549E-024
 -0.11888888888888882         -1.3145542625862206E-023
 -0.10888888888888881         -1.4856043137288314E-023
  -9.8888888888888804E-002    -1.0143562427758044E-023
  -8.8888888888888795E-002     4.0042196951479527E-024
  -7.8888888888888786E-002     2.8225323281950209E-023
  -6.8888888888888777E-002     5.8113527486782860E-023
  -5.8888888888888768E-002     8.1807475956962533E-023
  -4.8888888888888871E-002     7.9723955466754522E-023
  -3.8888888888888862E-002     2.8976464014127173E-023
  -2.8888888888888853E-002    -8.5483902252316261E-023
  -1.8888888888888844E-002    -2.5355206232863532E-022
  -8.8888888888888351E-003    -4.2196581290120085E-022
   1.1111111111111738E-003    -4.8716131707649999E-022
   1.1111111111111183E-002    -3.1437538382283753E-022
   2.1111111111111192E-002     2.0489605570591510E-022
   3.1111111111111200E-002     1.0597354947476357E-021
   4.1111111111111209E-002     2.0199794987191118E-021
   5.1111111111111218E-002     2.5889428391459974E-021
   6.1111111111111227E-002     2.0846348919207115E-021
   7.1111111111111125E-002    -9.3759532775515050E-023
   8.1111111111111134E-002    -4.0292383651144955E-021
   9.1111111111111143E-002    -8.8152023956665280E-021
  0.10111111111111115         -1.2312014731180687E-020
  0.11111111111111116         -1.1457466072579518E-020
  0.12111111111111117         -3.3641962597834068E-021
  0.13111111111111118          1.2865246695788076E-020
  0.14111111111111119          3.4152132299077900E-020
  0.15111111111111120          5.2316740669755358E-020
  0.16111111111111120          5.5060941432468438E-020
  0.17111111111111121          2.9938429022293028E-020
  0.18111111111111122         -2.8914751008993175E-020
  0.19111111111111123         -1.1320482378201322E-019
  0.20111111111111124         -1.9565184121503709E-019
  0.21111111111111125         -2.3222731220968846E-019
  0.22111111111111126         -1.7459520909006965E-019
  0.23111111111111127          7.6582198645684931E-021
  0.24111111111111128          3.0078127549291017E-019
  0.25111111111111128          6.2771226338924748E-019
  0.26111111111111129          8.4966565634890349E-019
  0.27111111111111108          7.9901014961192176E-019
  0.28111111111111109          3.4403046551903350E-019
  0.29111111111111110         -5.2915012618716260E-019
  0.30111111111111111         -1.6478953610528815E-018
  0.31111111111111112         -2.6366007725900577E-018
  0.32111111111111112         -2.9854371057692360E-018
  0.33111111111111113         -2.2130346681261543E-018
  0.34111111111111114         -9.2789689609126257E-020
  0.35111111111111115          3.1295627809537910E-018
  0.36111111111111116          6.6264098839030711E-018
  0.37111111111111117          9.0796927502955051E-018
  0.38111111111111118          9.0165474366944320E-018
  0.39111111111111119          5.3451538507630405E-018
  0.40111111111111120         -2.0535240539335724E-018
  0.41111111111111120         -1.1897157597796048E-017
  0.42111111111111121         -2.1464812463242710E-017
  0.43111111111111122         -2.7098150662745243E-017
  0.44111111111111123         -2.5223446720428538E-017
  0.45111111111111124         -1.3671813217843852E-017
  0.46111111111111125          7.0986597033187829E-018
  0.47111111111111126          3.3341046527444229E-017
  0.48111111111111127          5.8288545795525076E-017
  0.49111111111111128          7.3479367020481707E-017
  0.50111111111111128          7.0929930198144271E-017
  0.51111111111111129          4.5641083269764841E-017
  0.52111111111111108         -2.2433903354504722E-018
  0.53111111111111109         -6.6259615520110674E-017
  0.54111111111111110         -1.3381610465691669E-016
  0.55111111111111111         -1.8780280834135359E-016
  0.56111111111111112         -2.0937510961647511E-016
  0.57111111111111112         -1.8155199635819247E-016
  0.58111111111111113         -9.3327294503450689E-017
  0.59111111111111114          5.5907000167756304E-017
  0.60111111111111115          2.5192025106807853E-016
  0.61111111111111116          4.6197489286648841E-016
  0.62111111111111117          6.3360997306201533E-016
  0.63111111111111118          6.9849026160197138E-016
  0.64111111111111119          5.8421498204508479E-016
  0.65111111111111120          2.3576958269520517E-016
  0.66111111111111120         -3.5494500079151709E-016
  0.67111111111111121         -1.1181310300998411E-015
  0.68111111111111122         -1.8857771908012714E-015
  0.69111111111111123         -2.3975436978622422E-015
  0.70111111111111124         -2.3467441674000864E-015
  0.71111111111111125         -1.4712818298206164E-015
  0.72111111111111126          3.2216990793045919E-016
  0.73111111111111127          2.8333163147196885E-015
  0.74111111111111128          5.4935321293055409E-015
  0.75111111111111128          7.3983677731782709E-015
  0.76111111111111129          7.4897253587373307E-015
  0.77111111111111130          4.8903413328409140E-015
  0.78111111111111109         -6.6760357575725775E-016
  0.79111111111111110         -8.4446626801753036E-015
  0.80111111111111111         -1.6500223835370399E-014
  0.81111111111111112         -2.1877028048280719E-014
  0.82111111111111112         -2.1271025102431208E-014
  0.83111111111111113         -1.2152376612059763E-014
  0.84111111111111114          5.8888203829324942E-015
  0.85111111111111115          2.9989462383686258E-014
  0.86111111111111116          5.3585777579513022E-014
  0.87111111111111117          6.7206284211796669E-014
  0.88111111111111118          6.0738496480625126E-014
  0.89111111111111119          2.6979520641222735E-014
  0.90111111111111120         -3.4283062228922939E-014
  0.91111111111111120         -1.1293976143840131E-013
  0.92111111111111121         -1.8753760751364507E-013
  0.93111111111111122         -2.2795955119218891E-013
  0.94111111111111123         -2.0245622940704561E-013
  0.95111111111111124         -8.8402118199500113E-014
  0.96111111111111125          1.1543205085361163E-013
  0.97111111111111126          3.7874868172305121E-013
  0.98111111111111127          6.3615795574054057E-013
  0.99111111111111128          7.9415776255489789E-013
   1.0011111111111113          7.5067475022519425E-013
   1.0111111111111113          4.2578340484454580E-013
   1.0211111111111113         -2.0202730547508319E-013
   1.0311111111111111         -1.0636885252809924E-012
   1.0411111111111111         -1.9835448387961474E-012
   1.0511111111111111         -2.6910142950781202E-012
   1.0611111111111111         -2.8670410229941767E-012
   1.0711111111111111         -2.2242711145148419E-012
   1.0811111111111111         -6.0909242059759006E-013
   1.0911111111111111          1.8973141200501198E-012
   1.1011111111111112          4.9096629539668868E-012
   1.1111111111111112          7.7331786807466329E-012
   1.1211111111111114          9.4466838865270297E-012
   1.1311111111111112          9.0813589287419560E-012
   1.1411111111111114          5.8772071410972959E-012
   1.1511111111111112         -4.2897589235153799E-013
   1.1611111111111110         -9.3544824664171244E-012
   1.1711111111111112         -1.9543248963582727E-011
   1.1811111111111110         -2.8836618856664664E-011
   1.1911111111111112         -3.4590299374803735E-011
   1.2011111111111110         -3.4235940471472048E-011
   1.2111111111111112         -2.6022822785520816E-011
   1.2211111111111110         -9.8110573484855301E-012
   1.2311111111111113          1.2261154765103033E-011
   1.2411111111111111          3.5430002681691164E-011
   1.2511111111111113          5.2445887910312905E-011
   1.2611111111111111          5.4291200007883234E-011
   1.2711111111111113          3.1449173126807395E-011
   1.2811111111111111         -2.4444201870976734E-011
   1.2911111111111113         -1.1886280848472097E-010
   1.3011111111111111         -2.5297014483172120E-010
   1.3111111111111113         -4.2293848978580684E-010
   1.3211111111111111         -6.2036464854031692E-010
   1.3311111111111114         -8.3397722061562263E-010
   1.3411111111111111         -1.0525558202800767E-009
   1.3511111111111114         -1.2686411920981300E-009
   1.3611111111111112         -1.4822535421288308E-009
   1.3711111111111114         -1.7034457178155549E-009
   1.3811111111111112         -1.9522288230433560E-009
   1.3911111111111114         -2.2541686295340924E-009
   1.4011111111111112         -2.6297382049733642E-009
   1.4111111111111114         -3.0753524171700519E-009
   1.4211111111111112         -3.5337996973083818E-009
   1.4311111111111110         -3.8514884614926359E-009
   1.4411111111111112         -3.7185854395715978E-009
   1.4511111111111110         -2.5873310161017571E-009
   1.4611111111111112          4.3852996234328145E-010
   1.4711111111111110          6.7535985692757095E-009
   1.4811111111111113          1.8454368699849510E-008
   1.4911111111111111          3.8617333331103509E-008
   1.5011111111111113          7.1679863822282641E-008
   1.5111111111111111          1.2396067461395432E-007
   1.5211111111111113          2.0437074965684587E-007
   1.5311111111111111          3.2537712968405685E-007
   1.5411111111111113          5.0430287501512794E-007
   1.5511111111111111          7.6506142931975774E-007
   1.5611111111111113          1.1404484894228517E-006
   1.5711111111111111          1.6751397424741299E-006
   1.5811111111111114          2.4295741241076030E-006
   1.5911111111111111          3.4849265375669347E-006
   1.6011111111111114          4.9494101403979585E-006
   1.6111111111111112          6.9661850830016192E-006
   1.6211111111111114          9.7231686595478095E-006
   1.6311111111111112          1.3465094525599852E-005
   1.6411111111111114          1.8508158973418176E-005
   1.6511111111111112          2.5257624656660482E-005
   1.6611111111111114          3.4228665754199028E-005
   1.6711111111111112          4.6070810640230775E-005
   1.6811111111111110          6.1596045270562172E-005
   1.6911111111111112          8.1810816482175142E-005
   1.7011111111111110          1.0795151320053264E-004
   1.7111111111111112          1.4152325456961989E-004
   1.7211111111111110          1.8434085359331220E-004
   1.7311111111111113          2.3857096675783396E-004
   1.7411111111111111          3.0677331960760057E-004
   1.7511111111111113          3.9193860720843077E-004
   1.7611111111111111          4.9752020277082920E-004
   1.7711111111111113          6.2745524337515235E-004
   1.7811111111111111          7.8617106191813946E-004
   1.7911111111111113          9.7857159562408924E-004
   1.8011111111111111          1.2099980376660824E-003
   1.8111111111111113          1.4861583476886153E-003
   1.8211111111111111          1.8130192765966058E-003
   1.8311111111111114          2.1966560743749142E-003
   1.8411111111111111          2.6430555153638124E-003
   1.8511111111111114          3.1578696798533201E-003
   1.8611111111111112          3.7461186293512583E-003
   1.8711111111111114          4.4118459336459637E-003
   1.8811111111111112          5.1577300764620304E-003
   1.8911111111111114          5.9846625663340092E-003
   1.9011111111111112          6.8913027644157410E-003
   1.9111111111111114          7.8736282885074615E-003
   1.9211111111111112          8.9245019480586052E-003
   1.9311111111111110          1.0033276863396168E-002
   1.9411111111111112          1.1185469105839729E-002
   1.9511111111111110          1.2362523004412651E-002
   1.9611111111111112          1.3541700318455696E-002
   1.9711111111111110          1.4696119353175163E-002
   1.9811111111111113          1.5794968232512474E-002
   1.9911111111111111          1.6803910955786705E-002
   2.0011111111111113          1.7685696482658386E-002
   2.0111111111111111          1.8400980159640312E-002
   2.0211111111111113          1.8909340724349022E-002
   2.0311111111111111          1.9170481711626053E-002
   2.0411111111111113          1.9145587459206581E-002
   2.0511111111111111          1.8798794597387314E-002
   2.0611111111111113          1.8098721280694008E-002
   2.0711111111111111          1.7020002007484436E-002
   2.0811111111111114          1.5544763766229153E-002
   2.0911111111111111          1.3663959689438343E-002
   2.1011111111111114          1.1378508992493153E-002
   2.1111111111111112          8.7001705542206764E-003
   2.1211111111111114          5.6520886719226837E-003
   2.1311111111111112          2.2689737379550934E-003
   2.1411111111111114         -1.4031265163794160E-003
   2.1511111111111112         -5.3074727766215801E-003
   2.1611111111111114         -9.3776984140276909E-003
   2.1711111111111112         -1.3539272360503674E-002
   2.1811111111111114         -1.7711319029331207E-002
   2.1911111111111112         -2.1808736026287079E-002
   2.2011111111111110         -2.5744548067450523E-002
   2.2111111111111112         -2.9432401061058044E-002
   2.2211111111111110         -3.2789107412099838E-002
   2.2311111111111113         -3.5737171769142151E-002
   2.2411111111111111         -3.8207158446311951E-002
   2.2511111111111113         -4.0139850229024887E-002
   2.2611111111111111         -4.1488099843263626E-002
   2.2711111111111113         -4.2218327522277832E-002
   2.2811111111111111         -4.2311552911996841E-002
   2.2911111111111113         -4.1764024645090103E-002
   2.3011111111111111         -4.0587324649095535E-002
   2.3111111111111113         -3.8808014243841171E-002
   2.3211111111111111         -3.6466822028160095E-002
   2.3311111111111114         -3.3617403358221054E-002
   2.3411111111111111         -3.0324714258313179E-002
   2.3511111111111114         -2.6663068681955338E-002
   2.3611111111111112         -2.2713940590620041E-002
   2.3711111111111114         -1.8563598394393921E-002
   2.3811111111111112         -1.4300627633929253E-002
   2.3911111111111114         -1.0013449937105179E-002
   2.4011111111111112         -5.7878927327692509E-003
   2.4111111111111114         -1.7049013404175639E-003
   2.4211111111111112          2.1615477744489908E-003
   2.4311111111111114          5.7462691329419613E-003
   2.4411111111111112          8.9943762868642807E-003
   2.4511111111111110          1.1862438172101974E-002
   2.4611111111111112          1.4319243840873241E-002
   2.4711111111111110          1.6346180811524391E-002
   2.4811111111111113          1.7937211319804192E-002
   2.4911111111111111          1.9098455086350441E-002
   2.5011111111111113          1.9847426563501358E-002
   2.5111111111111111          2.0211927592754364E-002
   2.5211111111111113          2.0228656008839607E-002
   2.5311111111111111          1.9941590726375580E-002
   2.5411111111111113          1.9400190562009811E-002
   2.5511111111111111          1.8657485023140907E-002
   2.5611111111111113          1.7768112942576408E-002
   2.5711111111111111          1.6786387190222740E-002
   2.5811111111111114          1.5764435753226280E-002
   2.5911111111111111          1.4750488102436066E-002
   2.6011111111111114          1.3787356205284595E-002
   2.6111111111111112          1.2911164201796055E-002
   2.6211111111111114          1.2150353752076626E-002
   2.6311111111111112          1.1525000445544720E-002
   2.6411111111111114          1.1046459898352623E-002
   2.6511111111111112          1.0717337019741535E-002
   2.6611111111111114          1.0531781241297722E-002
   2.6711111111111112          1.0476081632077694E-002
   2.6811111111111114          1.0529528371989727E-002
   2.6911111111111112          1.0665507055819035E-002
   2.7011111111111110          1.0852768085896969E-002
   2.7111111111111112          1.1056831106543541E-002
   2.7211111111111110          1.1241457425057888E-002
   2.7311111111111113          1.1370144784450531E-002
   2.7411111111111111          1.1407594196498394E-002
   2.7511111111111113          1.1321087367832661E-002
   2.7611111111111111          1.1081748642027378E-002
   2.7711111111111113          1.0665647685527802E-002
   2.7811111111111111          1.0054713115096092E-002
   2.7911111111111113          9.2374477535486221E-003
   2.8011111111111111          8.2094138488173485E-003
   2.8111111111111113          6.9734943099319935E-003
   2.8211111111111111          5.5399150587618351E-003
   2.8311111111111114          3.9260317571461201E-003
   2.8411111111111111          2.1558855660259724E-003
   2.8511111111111114          2.5953992735594511E-004
   2.8611111111111112         -1.7277862643823028E-003
   2.8711111111111114         -3.7667662836611271E-003
   2.8811111111111112         -5.8151618577539921E-003
   2.8911111111111114         -7.8291324898600578E-003
   2.9011111111111112         -9.7646126523613930E-003
   2.9111111111111114         -1.1578709818422794E-002
   2.9211111111111112         -1.3231066055595875E-002
   2.9311111111111114         -1.4685139060020447E-002
   2.9411111111111112         -1.5909336507320404E-002
   2.9511111111111110         -1.6877973452210426E-002
   2.9611111111111112         -1.7572019249200821E-002
   2.9711111111111110         -1.7979588359594345E-002
   2.9811111111111113         -1.8096191808581352E-002
   2.9911111111111111         -1.7924731597304344E-002
   3.0011111111111113         -1.7475258558988571E-002
   3.0111111111111111         -1.6764514148235321E-002
   3.0211111111111113         -1.5815276652574539E-002
   3.0311111111111111         -1.4655544422566891E-002
   3.0411111111111113         -1.3317594304680824E-002
   3.0511111111111111         -1.1836932972073555E-002
   3.0611111111111113         -1.0251182131469250E-002
   3.0711111111111111         -8.5989134386181831E-003
   3.0811111111111114         -6.9184731692075729E-003
   3.0911111111111111         -5.2468175999820232E-003
   3.1011111111111114         -3.6184042692184448E-003
   3.1111111111111112         -2.0641705486923456E-003
   3.1211111111111109         -6.1064900364726782E-004
   3.1311111111111116          7.2073395131155849E-004
   3.1411111111111114          1.9141345983371139E-003
   3.1511111111111112          2.9595075175166130E-003
   3.1611111111111110          3.8525373674929142E-003
   3.1711111111111117          4.5942831784486771E-003
   3.1811111111111114          5.1905545406043530E-003
   3.1911111111111112          5.6510595604777336E-003
   3.2011111111111110          5.9883878566324711E-003
   3.2111111111111108          6.2169050797820091E-003
   3.2211111111111115          6.3516502268612385E-003
   3.2311111111111113          6.4073204994201660E-003
   3.2411111111111111          6.3974200747907162E-003
   3.2511111111111108          6.3336333259940147E-003
   3.2611111111111115          6.2254550866782665E-003
   3.2711111111111113          6.0800807550549507E-003
   3.2811111111111111          5.9025329537689686E-003
   3.2911111111111109          5.6959809735417366E-003
   3.3011111111111116          5.4621882736682892E-003
   3.3111111111111113          5.2020186558365822E-003
   3.3211111111111111          4.9159401096403599E-003
   3.3311111111111109          4.6044699847698212E-003
   3.3411111111111116          4.2685265652835369E-003
   3.3511111111111114          3.9096693508327007E-003
   3.3611111111111112          3.5302357282489538E-003
   3.3711111111111109          3.1333896331489086E-003
   3.3811111111111116          2.7231096755713224E-003
   3.3911111111111114          2.3041472304612398E-003
   3.4011111111111112          1.8819755641743541E-003
   3.4111111111111110          1.4627432683482766E-003
   3.4211111111111117          1.0532285086810589E-003
   3.4311111111111114          6.6078006057068706E-004
   3.4411111111111112          2.9322228510864079E-004
   3.4511111111111110         -4.1303785110358149E-005
   3.4611111111111117         -3.3458505640737712E-004
   3.4711111111111115         -5.7867908617481589E-004
   3.4811111111111113         -7.6635176083073020E-004
   3.4911111111111111         -8.9158909395337105E-004
   3.5011111111111108         -9.5014524413272738E-004
   3.5111111111111115         -9.4007427105680108E-004
   3.5211111111111113         -8.6218642536550760E-004
   3.5311111111111111         -7.2036898927763104E-004
   3.5411111111111109         -5.2171939751133323E-004
   3.5511111111111116         -2.7645542286336422E-004
   3.5611111111111113          2.4138946628227131E-006
   3.5711111111111111          2.9964663553982973E-004
   3.5811111111111109          5.9852382401004434E-004
   3.5911111111111116          8.8174815755337477E-004
   3.6011111111111114          1.1324174702167511E-003
   3.6111111111111112          1.3349943328648806E-003
   3.6211111111111109          1.4761947095394135E-003
   3.6311111111111116          1.5457235276699066E-003
   3.6411111111111114          1.5368006424978375E-003
   3.6511111111111112          1.4464390696957707E-003
   3.6611111111111110          1.2754603521898389E-003
   3.6711111111111117          1.0282535804435611E-003
   3.6811111111111114          7.1230827597901225E-004
   3.6911111111111112          3.3756616176106036E-004
   3.7011111111111110         -8.4349449025467038E-005
   3.7111111111111117         -5.4096343228593469E-004
   3.7211111111111115         -1.0197771480306983E-003
   3.7311111111111113         -1.5090414090082049E-003
   3.7411111111111111         -1.9984331447631121E-003
   3.7511111111111108         -2.4796109646558762E-003
   3.7611111111111115         -2.9466375708580017E-003
   3.7711111111111113         -3.3962756861001253E-003
   3.7811111111111111         -3.8281704764813185E-003
   3.7911111111111109         -4.2449352331459522E-003
   3.8011111111111116         -4.6521630138158798E-003
   3.8111111111111113         -5.0583728589117527E-003
   3.8211111111111111         -5.4748998954892159E-003
   3.8311111111111109         -5.9157228097319603E-003
   3.8411111111111116         -6.3972189091145992E-003
   3.8511111111111114         -6.9378321059048176E-003
   3.8611111111111112         -7.5576463714241982E-003
   3.8711111111111109         -8.2778576761484146E-003
   3.8811111111111116         -9.1201588511466980E-003
   3.8911111111111114         -1.0106056928634644E-002
   3.9011111111111112         -1.1256171390414238E-002
   3.9111111111111110         -1.2589552439749241E-002
   3.9211111111111117         -1.4123070053756237E-002
   3.9311111111111114         -1.5870926901698112E-002
   3.9411111111111112         -1.7844317480921745E-002
   3.9511111111111110         -2.0051244646310806E-002
   3.9611111111111117         -2.2496478632092476E-002
   3.9711111111111115         -2.5181626901030540E-002
   3.9811111111111113         -2.8105229139328003E-002
   3.9911111111111111         -3.1262829899787903E-002
   4.0011111111111113         -3.4646946936845779E-002
   4.0111111111111111         -3.8246877491474152E-002
   4.0211111111111109         -4.2048290371894836E-002
   4.0311111111111106         -4.6032622456550598E-002
   4.0411111111111104         -5.0176288932561874E-002
   4.0511111111111120         -5.4449740797281265E-002
   4.0611111111111118         -5.8816473931074142E-002
   4.0711111111111116         -6.3232079148292542E-002
   4.0811111111111114         -6.7643381655216217E-002
   4.0911111111111111         -7.1987807750701904E-002
   4.1011111111111109         -7.6193019747734070E-002
   4.1111111111111107         -8.0176852643489838E-002
   4.1211111111111105         -8.3847664296627045E-002
   4.1311111111111121         -8.7104983627796173E-002
   4.1411111111111119         -8.9840635657310486E-002
   4.1511111111111116         -9.1940127313137054E-002
   4.1611111111111114         -9.3284562230110168E-002
   4.1711111111111112         -9.3752823770046234E-002
   4.1811111111111110         -9.3224234879016876E-002
   4.1911111111111108         -9.1581583023071289E-002
   4.2011111111111106         -8.8714502751827240E-002
   4.2111111111111121         -8.4523186087608337E-002
   4.2211111111111119         -7.8922323882579803E-002
   4.2311111111111117         -7.1845188736915588E-002
   4.2411111111111115         -6.3247635960578918E-002
   4.2511111111111113         -5.3111929446458817E-002
   4.2611111111111111         -4.1450120508670807E-002
   4.2711111111111109         -2.8306843712925911E-002
   4.2811111111111106         -1.3761254958808422E-002
   4.2911111111111104          2.0719254389405251E-003
   4.3011111111111120          1.9042480736970901E-002
   4.3111111111111118          3.6965880542993546E-002
   4.3211111111111116          5.5625569075345993E-002
   4.3311111111111114          7.4776329100131989E-002
   4.3411111111111111          9.4148591160774231E-002
   4.3511111111111109         0.11345356702804565     
   4.3611111111111107         0.13238903880119324     
   4.3711111111111105         0.15064559876918793     
   4.3811111111111121         0.16791324317455292     
   4.3911111111111119         0.18388800323009491     
   4.4011111111111116         0.19827863574028015     
   4.4111111111111114         0.21081307530403137     
   4.4211111111111112         0.22124466300010681     
   4.4311111111111110         0.22935780882835388     
   4.4411111111111108         0.23497319221496582     
   4.4511111111111106         0.23795236647129059     
   4.4611111111111121         0.23820140957832336     
   4.4711111111111119         0.23567390441894531     
   4.4811111111111117         0.23037271201610565     
   4.4911111111111115         0.22235086560249329     
   4.5011111111111113         0.21171116828918457     
   4.5111111111111111         0.19860467314720154     
   4.5211111111111109         0.18322786688804626     
   4.5311111111111106         0.16581869125366211     
   4.5411111111111104         0.14665149152278900     
   4.5511111111111120         0.12603092193603516     