 -0.88888888888888884         -1.0601995489172188E-035
 -0.87888888888888883         -3.4002744557987365E-031
 -0.86888888888888882         -8.5781289501556807E-027
 -0.85888888888888881         -3.8078680743186905E-025
 -0.84888888888888880         -3.0994969743970489E-023
 -0.83888888888888880         -1.3303386908793145E-022
 -0.82888888888888879         -2.4192551476312596E-022
 -0.81888888888888878         -2.5087165181221364E-022
 -0.80888888888888888         -5.9465612359137604E-022
 -0.79888888888888887         -2.6811235961929011E-021
 -0.78888888888888886         -7.2086625497236946E-021
 -0.77888888888888885         -9.8257456855678339E-021
 -0.76888888888888884          6.5802606479247444E-022
 -0.75888888888888884          3.1666906922753542E-020
 -0.74888888888888883          6.2377741691412102E-020
 -0.73888888888888882          2.9478962503762499E-020
 -0.72888888888888881         -1.3185006932502374E-019
 -0.71888888888888880         -3.7501321329584900E-019
 -0.70888888888888890         -4.3831106417175563E-019
 -0.69888888888888889          6.6847011465733181E-020
 -0.68888888888888888          1.2414669913150049E-018
 -0.67888888888888888          2.3342170414554792E-018
 -0.66888888888888887          1.6405342807817721E-018
 -0.65888888888888886         -2.4107397267179129E-018
 -0.64888888888888885         -8.9802681222084688E-018
 -0.63888888888888884         -1.2851542044947480E-017
 -0.62888888888888883         -5.5143416509418803E-018
 -0.61888888888888882          1.8688580914916710E-017
 -0.60888888888888881          5.3001948473914971E-017
 -0.59888888888888880          7.2124504734123951E-017
 -0.58888888888888880          3.8924459413895512E-017
 -0.57888888888888879         -7.1197533052472526E-017
 -0.56888888888888878         -2.3619296681993431E-016
 -0.55888888888888877         -3.6602006245598547E-016
 -0.54888888888888876         -3.2141512216511681E-016
 -0.53888888888888875          1.4896637748824597E-017
 -0.52888888888888885          6.3582358779054604E-016
 -0.51888888888888884          1.3326636174530292E-015
 -0.50888888888888884          1.7094890939286806E-015
 -0.49888888888888883          1.3228610110335736E-015
 -0.48888888888888882         -8.7810065992170998E-017
 -0.47888888888888881         -2.3813316990100317E-015
 -0.46888888888888886         -4.9283765003044211E-015
 -0.45888888888888885         -6.7245678867140519E-015
 -0.44888888888888884         -6.6658867146776948E-015
 -0.43888888888888883         -3.8644878719599693E-015
 -0.42888888888888882          2.1100041761149034E-015
 -0.41888888888888881          1.1063425972871951E-014
 -0.40888888888888886          2.1938886864418701E-014
 -0.39888888888888885          3.2338684545973537E-014
 -0.38888888888888884          3.7867681944780615E-014
 -0.37888888888888883          3.1828584364478052E-014
 -0.36888888888888882          6.2619468665274861E-015
 -0.35888888888888881         -4.4656925455698743E-014
 -0.34888888888888880         -1.1869391374711574E-013
 -0.33888888888888880         -1.9871277746105059E-013
 -0.32888888888888879         -2.4868044364197150E-013
 -0.31888888888888878         -2.1761225091863901E-013
 -0.30888888888888888         -5.5554844578808993E-014
 -0.29888888888888887          2.5855278204880983E-013
 -0.28888888888888886          6.8430694053975283E-013
 -0.27888888888888885          1.0970213452921040E-012
 -0.26888888888888884          1.2927572424006883E-012
 -0.25888888888888884          1.0353598403969877E-012
 -0.24888888888888883          1.4653337950584072E-013
 -0.23888888888888882         -1.3798625870392600E-012
 -0.22888888888888881         -3.2779761977713706E-012
 -0.21888888888888880         -4.9741131352698531E-012
 -0.20888888888888879         -5.6586293810390043E-012
 -0.19888888888888878         -4.4844657501319496E-012
 -0.18888888888888877         -8.7171583970299671E-013
 -0.17888888888888888          5.1461903315119795E-012
 -0.16888888888888887          1.2634821140722341E-011
 -0.15888888888888886          1.9646558685471049E-011
 -0.14888888888888885          2.3392057388327281E-011
 -0.13888888888888884          2.0765543798373365E-011
 -0.12888888888888883          9.2251536271126255E-012
 -0.11888888888888882         -1.2070546819009653E-011
 -0.10888888888888881         -4.1093906055778007E-011
  -9.8888888888888804E-002    -7.2101297154958388E-011
  -8.8888888888888795E-002    -9.5555979795491908E-011
  -7.8888888888888786E-002    -9.9267205566633265E-011
  -6.8888888888888777E-002    -7.1032797699377426E-011
  -5.8888888888888768E-002    -2.7170138968551916E-012
  -4.8888888888888871E-002     1.0483627854718236E-010
  -3.8888888888888862E-002     2.3726434705828581E-010
  -2.8888888888888853E-002     3.6423689064868370E-010
  -1.8888888888888844E-002     4.4099196516711459E-010
  -8.8888888888888351E-003     4.1538159023524202E-010
   1.1111111111111738E-003     2.4090437977797308E-010
   1.1111111111111183E-002    -1.0548983214730967E-010
   2.1111111111111192E-002    -6.0413074542964296E-010
   3.1111111111111200E-002    -1.1772113284180818E-009
   4.1111111111111209E-002    -1.6838230809668175E-009
   5.1111111111111218E-002    -1.9318717736638291E-009
   6.1111111111111227E-002    -1.7111121408674990E-009
   7.1111111111111125E-002    -8.4710299885770723E-010
   8.1111111111111134E-002     7.3039962966703342E-010
   9.1111111111111143E-002     2.9181330685190687E-009
  0.10111111111111115          5.3886104467437690E-009
  0.11111111111111116          7.5802537580216267E-009
  0.12111111111111117          8.7480627186664606E-009
  0.13111111111111118          8.0853572725914091E-009
  0.14111111111111119          4.9115405076349816E-009
  0.15111111111111120         -1.0991080268141218E-009
  0.16111111111111120         -9.6929504422860191E-009
  0.17111111111111121         -1.9877703039128392E-008
  0.18111111111111122         -2.9894390962681427E-008
  0.19111111111111123         -3.7377215988954049E-008
  0.20111111111111124         -3.9731904877271518E-008
  0.21111111111111125         -3.4723242947620747E-008
  0.22111111111111126         -2.1214207279740549E-008
  0.23111111111111127          4.6863280617204239E-011
  0.24111111111111128          2.5726668795300611E-008
  0.25111111111111128          4.9436422955295711E-008
  0.26111111111111129          6.1602918322023470E-008
  0.27111111111111108          4.9727308493174860E-008
  0.28111111111111109         -1.0218628165858945E-009
  0.29111111111111110         -1.0705475261829633E-007
  0.30111111111111111         -2.8574086741173232E-007
  0.31111111111111112         -5.5532012765979744E-007
  0.32111111111111112         -9.3580786142410943E-007
  0.33111111111111113         -1.4513667565552169E-006
  0.34111111111111114         -2.1345715595089132E-006
  0.35111111111111115         -3.0329354103741935E-006
  0.36111111111111116         -4.2179258343821857E-006
  0.37111111111111117         -5.7966540225606877E-006
  0.38111111111111118         -7.9263281804742292E-006
  0.39111111111111119         -1.0831618055817671E-005
  0.40111111111111120         -1.4825176549493335E-005
  0.41111111111111120         -2.0331726773292758E-005
  0.42111111111111121         -2.7916465114685707E-005
  0.43111111111111122         -3.8318681617965922E-005
  0.44111111111111123         -5.2491999667836353E-005
  0.45111111111111124         -7.1652648330200464E-005
  0.46111111111111125         -9.7337462648283690E-005
  0.47111111111111126         -1.3147322169970721E-004
  0.48111111111111127         -1.7645901243668050E-004
  0.49111111111111128         -2.3526239965576679E-004
  0.50111111111111128         -3.1153042800724506E-004
  0.51111111111111129         -4.0971490670926869E-004
  0.52111111111111108         -5.3521071095019579E-004
  0.53111111111111109         -6.9450505543500185E-004
  0.54111111111111110         -8.9533277787268162E-004
  0.55111111111111111         -1.1468320153653622E-003
  0.56111111111111112         -1.4596913242712617E-003
  0.57111111111111112         -1.8462782027199864E-003
  0.58111111111111113         -2.3207340855151415E-003
  0.59111111111111114         -2.8990213759243488E-003
  0.60111111111111115         -3.5989023745059967E-003
  0.61111111111111116         -4.4398307800292969E-003
  0.62111111111111117         -5.4427343420684338E-003
  0.63111111111111118         -6.6296686418354511E-003
  0.64111111111111119         -8.0233216285705566E-003
  0.65111111111111120         -9.6463523805141449E-003
  0.66111111111111120         -1.1520551517605782E-002
  0.67111111111111121         -1.3665825128555298E-002
  0.68111111111111122         -1.6098998486995697E-002
  0.69111111111111123         -1.8832452595233917E-002
  0.70111111111111124         -2.1872619166970253E-002
  0.71111111111111125         -2.5218373164534569E-002
  0.72111111111111126         -2.8859371319413185E-002
  0.73111111111111127         -3.2774392515420914E-002
  0.74111111111111128         -3.6929775029420853E-002
  0.75111111111111128         -4.1278008371591568E-002
  0.76111111111111129         -4.5756611973047256E-002
  0.77111111111111130         -5.0287388265132904E-002
  0.78111111111111109         -5.4776143282651901E-002
  0.79111111111111110         -5.9112992137670517E-002
  0.80111111111111111         -6.3173368573188782E-002
  0.81111111111111112         -6.6819734871387482E-002
  0.82111111111111112         -6.9904141128063202E-002
  0.83111111111111113         -7.2271578013896942E-002
  0.84111111111111114         -7.3764130473136902E-002
  0.85111111111111115         -7.4225835502147675E-002
  0.86111111111111116         -7.3508158326148987E-002
  0.87111111111111117         -7.1475967764854431E-002
  0.88111111111111118         -6.8013697862625122E-002
  0.89111111111111119         -6.3031524419784546E-002
  0.90111111111111120         -5.6471336632966995E-002
  0.91111111111111120         -4.8312064260244370E-002
  0.92111111111111121         -3.8574211299419403E-002
  0.93111111111111122         -2.7323246002197266E-002
  0.94111111111111123         -1.4671606943011284E-002
  0.95111111111111124         -7.7908037928864360E-004
  0.96111111111111125          1.4148565940558910E-002
  0.97111111111111126          2.9862793162465096E-002
  0.98111111111111127          4.6077344566583633E-002
  0.99111111111111128          6.2475040555000305E-002
   1.0011111111111113          7.8716151416301727E-002
   1.0111111111111113          9.4448089599609375E-002
   1.0211111111111113         0.10931603610515594     
   1.0311111111111111         0.12297413498163223     
   1.0411111111111111         0.13509680330753326     
   1.0511111111111111         0.14538960158824921     
   1.0611111111111111         0.15359932184219360     
   1.0711111111111111         0.15952266752719879     
   1.0811111111111111         0.16301333904266357     
   1.0911111111111111         0.16398702561855316     
   1.1011111111111112         0.16242428123950958     
   1.1111111111111112         0.15837100148200989     
   1.1211111111111114         0.15193653106689453     
   1.1311111111111112         0.14328947663307190     
   1.1411111111111114         0.13265153765678406     
   1.1511111111111112         0.12028950452804565     
   1.1611111111111110         0.10650592297315598     
   1.1711111111111112          9.1628789901733398E-002
   1.1811111111111110          7.6000750064849854E-002
   1.1911111111111112          5.9968151152133942E-002
   1.2011111111111110          4.3870504945516586E-002
   1.2111111111111112          2.8030712157487869E-002
   1.2211111111111110          1.2746425345540047E-002
   1.2311111111111113         -1.7171702347695827E-003
   1.2411111111111111         -1.5132963657379150E-002
   1.2511111111111113         -2.7315802872180939E-002
   1.2611111111111111         -3.8124661892652512E-002
   1.2711111111111113         -4.7463122755289078E-002
   1.2811111111111111         -5.5278357118368149E-002
   1.2911111111111113         -6.1558719724416733E-002
   1.3011111111111111         -6.6330201923847198E-002
   1.3111111111111113         -6.9651998579502106E-002
   1.3211111111111111         -7.1611441671848297E-002
   1.3311111111111114         -7.2318591177463531E-002
   1.3411111111111111         -7.1900680661201477E-002
   1.3511111111111114         -7.0496656000614166E-002
   1.3611111111111112         -6.8252027034759521E-002
   1.3711111111111114         -6.5314084291458130E-002
   1.3811111111111112         -6.1827644705772400E-002
   1.3911111111111114         -5.7931367307901382E-002
   1.4011111111111112         -5.3754750639200211E-002
   1.4111111111111114         -4.9415811896324158E-002
   1.4211111111111112         -4.5019473880529404E-002
   1.4311111111111110         -4.0656607598066330E-002
   1.4411111111111112         -3.6403648555278778E-002
   1.4511111111111110         -3.2322760671377182E-002
   1.4611111111111112         -2.8462417423725128E-002
   1.4711111111111110         -2.4858310818672180E-002
   1.4811111111111113         -2.1534515544772148E-002
   1.4911111111111111         -1.8504843115806580E-002
   1.5011111111111113         -1.5774279832839966E-002
   1.5111111111111111         -1.3340441510081291E-002
   1.5211111111111113         -1.1194985359907150E-002
   1.5311111111111111         -9.3249082565307617E-003
   1.5411111111111113         -7.7137281186878681E-003
   1.5511111111111111         -6.3425218686461449E-003
   1.5611111111111113         -5.1908306777477264E-003
   1.5711111111111111         -4.2374348267912865E-003
   1.5811111111111114         -3.4609911963343620E-003
   1.5911111111111111         -2.8405233751982450E-003
   1.6011111111111114         -2.3557699751108885E-003
   1.6111111111111112         -1.9873920828104019E-003
   1.6211111111111114         -1.7170802457258105E-003
   1.6311111111111112         -1.5275909099727869E-003
   1.6411111111111114         -1.4027623692527413E-003
   1.6511111111111112         -1.3275368837639689E-003
   1.6611111111111114         -1.2880116701126099E-003
   1.6711111111111112         -1.2715214397758245E-003
   1.6811111111111110         -1.2667512055486441E-003
   1.6911111111111112         -1.2638713233172894E-003
   1.7011111111111110         -1.2546848738566041E-003
   1.7111111111111112         -1.2327691074460745E-003
   1.7211111111111110         -1.1935870861634612E-003
   1.7311111111111113         -1.1345379753038287E-003
   1.7411111111111111         -1.0549175785854459E-003
   1.7511111111111113         -9.5577107276767492E-004
   1.7611111111111111         -8.3964492660015821E-004
   1.7711111111111113         -7.1026256773620844E-004
   1.7811111111111111         -5.7216628920286894E-004
   1.7911111111111113         -4.3036672286689281E-004
   1.8011111111111111         -2.9003297095187008E-004
   1.8111111111111113         -1.5623793296981603E-004
   1.8211111111111111         -3.3760010410333052E-005
   1.8311111111111114          7.3067087214440107E-005
   1.8411111111111111          1.6046701057348400E-004
   1.8511111111111114          2.2530514979735017E-004
   1.8611111111111112          2.6515341596677899E-004
   1.8711111111111114          2.7834501815959811E-004
   1.8811111111111112          2.6403027004562318E-004
   1.8911111111111114          2.2224201529752463E-004
   1.9011111111111112          1.5397173410747200E-004
   1.9111111111111114          6.1244798416737467E-005
   1.9211111111111112         -5.2826781029580161E-005
   1.9311111111111110         -1.8404010916128755E-004
   1.9411111111111112         -3.2716698478907347E-004
   1.9511111111111110         -4.7609873581677675E-004
   1.9611111111111112         -6.2406476354226470E-004
   1.9711111111111110         -7.6390965841710567E-004
   1.9811111111111113         -8.8840955868363380E-004
   1.9911111111111111         -9.9061033688485622E-004
   2.0011111111111113         -1.0641730623319745E-003
   2.0111111111111111         -1.1037122458219528E-003
   2.0211111111111113         -1.1051088804379106E-003
   2.0311111111111111         -1.0657740058377385E-003
   2.0411111111111113         -9.8483415786176920E-004
   2.0511111111111111         -8.6321542039513588E-004
   2.0611111111111113         -7.0361123653128743E-004
   2.0711111111111111         -5.1033421186730266E-004
   2.0811111111111114         -2.8906736406497657E-004
   2.0911111111111111         -4.6539360482711345E-005
   2.1011111111111114          2.0984550064895302E-004
   2.1111111111111112          4.7239032573997974E-004
   2.1211111111111114          7.3346996214240789E-004
   2.1311111111111112          9.8584580700844526E-004
   2.1411111111111114          1.2229048879817128E-003
   2.1511111111111112          1.4388051349669695E-003
   2.1611111111111114          1.6285234596580267E-003
   2.1711111111111112          1.7878223443403840E-003
   2.1811111111111114          1.9131690496578813E-003
   2.1911111111111112          2.0016492344439030E-003
   2.2011111111111110          2.0509220194071531E-003
   2.2111111111111112          2.0592440851032734E-003
   2.2211111111111110          2.0255800336599350E-003
   2.2311111111111113          1.9497812027111650E-003
   2.2411111111111111          1.8328074365854263E-003
   2.2511111111111113          1.6769464127719402E-003
   2.2611111111111111          1.4859836082905531E-003
   2.2711111111111113          1.2652808800339699E-003
   2.2811111111111111          1.0217286180704832E-003
   2.2911111111111113          7.6355482451617718E-004
   2.3011111111111111          4.9999181646853685E-004
   2.3111111111111113          2.4082133313640952E-004
   2.3211111111111111         -4.1579805838409811E-006
   2.3311111111111114         -2.2568485292140394E-004
   2.3411111111111111         -4.1554906056262553E-004
   2.3511111111111114         -5.6700955610722303E-004
   2.3611111111111112         -6.7507906351238489E-004
   2.3711111111111114         -7.3666102252900600E-004
   2.3811111111111112         -7.5054675107821822E-004
   2.3911111111111114         -7.1729999035596848E-004
   2.4011111111111112         -6.3906447030603886E-004
   2.4111111111111114         -5.1933055510744452E-004
   2.4211111111111112         -3.6269053816795349E-004
   2.4311111111111114         -1.7460210074204952E-004
   2.4411111111111112          3.8833368307678029E-005
   2.4511111111111110          2.7108073118142784E-004
   2.4611111111111112          5.1538058323785663E-004
   2.4711111111111110          7.6497311238199472E-004
   2.4811111111111113          1.0133491596207023E-003
   2.4911111111111111          1.2545334175229073E-003
   2.5011111111111113          1.4833918539807200E-003
   2.5111111111111111          1.6959413187578321E-003
   2.5211111111111113          1.8896255642175674E-003
   2.5311111111111111          2.0635169930756092E-003
   2.5411111111111113          2.2184029221534729E-003
   2.5511111111111111          2.3567297030240297E-003
   2.5611111111111113          2.4823958519846201E-003
   2.5711111111111111          2.6004051323980093E-003
   2.5811111111111114          2.7164169587194920E-003
   2.5911111111111111          2.8362439479678869E-003
   2.6011111111111114          2.9653515666723251E-003
   2.6111111111111112          3.1084206420928240E-003
   2.6211111111111114          3.2690153457224369E-003
   2.6311111111111112          3.4493892453610897E-003
   2.6411111111111114          3.6504319868981838E-003
   2.6511111111111112          3.8717454299330711E-003
   2.6611111111111114          4.1118138469755650E-003
   2.6711111111111112          4.3682167306542397E-003
   2.6811111111111114          4.6378350816667080E-003
   2.6911111111111112          4.9170022830367088E-003
   2.7011111111111110          5.2015660330653191E-003
   2.7111111111111112          5.4868492297828197E-003
   2.7211111111111110          5.7675181888043880E-003
   2.7311111111111113          6.0373926535248756E-003
   2.7411111111111111          6.2892413698136806E-003
   2.7511111111111113          6.5146111883223057E-003
   2.7611111111111111          6.7037488333880901E-003
   2.7711111111111113          6.8456418812274933E-003
   2.7811111111111111          6.9282045587897301E-003
   2.7911111111111113          6.9386074319481850E-003
   2.8011111111111111          6.8637351505458355E-003
   2.8111111111111113          6.6907359287142754E-003
   2.8211111111111111          6.4076320268213749E-003
   2.8311111111111114          6.0039353556931019E-003
   2.8411111111111111          5.4712346754968166E-003
   2.8511111111111114          4.8037138767540455E-003
   2.8611111111111112          3.9985813200473785E-003
   2.8711111111111114          3.0563934706151485E-003
   2.8811111111111112          1.9812786485999823E-003
   2.8911111111111114          7.8106636647135019E-004
   2.9011111111111112         -5.3266325267031789E-004
   2.9111111111111114         -1.9446004880592227E-003
   2.9211111111111112         -3.4357935655862093E-003
   2.9311111111111114         -4.9838093109428883E-003
   2.9411111111111112         -6.5629794262349606E-003
   2.9511111111111110         -8.1447530537843704E-003
   2.9611111111111112         -9.6981795504689217E-003
   2.9711111111111110         -1.1190536431968212E-002
   2.9811111111111113         -1.2588117271661758E-002
   2.9911111111111111         -1.3857187703251839E-002
   3.0011111111111113         -1.4965100213885307E-002
   3.0111111111111111         -1.5881532803177834E-002
   3.0211111111111113         -1.6579812392592430E-002
   3.0311111111111111         -1.7038229852914810E-002
   3.0411111111111113         -1.7241282388567924E-002
   3.0511111111111111         -1.7180722206830978E-002
   3.0611111111111113         -1.6856320202350616E-002
   3.0711111111111111         -1.6276242211461067E-002
   3.0811111111111114         -1.5457000583410263E-002
   3.0911111111111111         -1.4422924257814884E-002
   3.1011111111111114         -1.3205165974795818E-002
   3.1111111111111112         -1.1840291321277618E-002
   3.1211111111111109         -1.0368537157773972E-002
   3.1311111111111116         -8.8318642228841782E-003
   3.1411111111111114         -7.2719440795481205E-003
   3.1511111111111112         -5.7282345369458199E-003
   3.1611111111111110         -4.2362930253148079E-003
   3.1711111111111117         -2.8264415450394154E-003
   3.1811111111111114         -1.5228649135679007E-003
   3.1911111111111112         -3.4316559322178364E-004
   3.2011111111111110          7.0164108183234930E-004
   3.2111111111111108          1.6067551914602518E-003
   3.2211111111111115          2.3729293607175350E-003
   3.2311111111111113          3.0056163668632507E-003
   3.2411111111111111          3.5140295512974262E-003
   3.2511111111111108          3.9102029986679554E-003
   3.2611111111111115          4.2081209830939770E-003
   3.2711111111111113          4.4229584746062756E-003
   3.2811111111111111          4.5704469084739685E-003
   3.2911111111111109          4.6663573011755943E-003
   3.3011111111111116          4.7260751016438007E-003
   3.3111111111111113          4.7642365097999573E-003
   3.3211111111111111          4.7944029793143272E-003
   3.3311111111111109          4.8287664540112019E-003
   3.3411111111111116          4.8778830096125603E-003
   3.3511111111111114          4.9504493363201618E-003
   3.3611111111111112          5.0531295128166676E-003
   3.3711111111111109          5.1904413849115372E-003
   3.3811111111111116          5.3646983578801155E-003
   3.3911111111111114          5.5759963579475880E-003
   3.4011111111111112          5.8222305960953236E-003
   3.4111111111111110          6.0991295613348484E-003
   3.4211111111111117          6.4003043808043003E-003
   3.4311111111111114          6.7173135466873646E-003
   3.4411111111111112          7.0397583767771721E-003
   3.4511111111111110          7.3554390110075474E-003
   3.4611111111111117          7.6505914330482483E-003
   3.4711111111111115          7.9102516174316406E-003
   3.4811111111111113          8.1187533214688301E-003
   3.4911111111111111          8.2603748887777328E-003
   3.5011111111111108          8.3201061934232712E-003
   3.5111111111111115          8.2844812422990799E-003
   3.5211111111111113          8.1424042582511902E-003
   3.5311111111111111          7.8858742490410805E-003
   3.5411111111111109          7.5105340220034122E-003
   3.5511111111111116          7.0159756578505039E-003
   3.5611111111111113          6.4057870768010616E-003
   3.5711111111111111          5.6873392313718796E-003
   3.5811111111111109          4.8713698051869869E-003
   3.5911111111111116          3.9714216254651546E-003
   3.6011111111111114          3.0032205395400524E-003
   3.6111111111111112          1.9840605091303587E-003
   3.6211111111111109          9.3224982265383005E-004
   3.6311111111111116         -1.3334713003132492E-004
   3.6411111111111114         -1.1936705559492111E-003
   3.6511111111111112         -2.2297506220638752E-003
   3.6611111111111110         -3.2229560893028975E-003
   3.6711111111111117         -4.1552502661943436E-003
   3.6811111111111114         -5.0094863399863243E-003
   3.6911111111111112         -5.7697589509189129E-003
   3.7011111111111110         -6.4218011684715748E-003
   3.7111111111111117         -6.9533903151750565E-003
   3.7211111111111115         -7.3547316715121269E-003
   3.7311111111111113         -7.6187686063349247E-003
   3.7411111111111111         -7.7414060942828655E-003
   3.7511111111111108         -7.7216341160237789E-003
   3.7611111111111115         -7.5615621171891689E-003
   3.7711111111111113         -7.2663896717131138E-003
   3.7811111111111111         -6.8443343043327332E-003
   3.7911111111111109         -6.3065295107662678E-003
   3.8011111111111116         -5.6669004261493683E-003
   3.8111111111111113         -4.9420027062296867E-003
   3.8211111111111111         -4.1508050635457039E-003
   3.8311111111111109         -3.3143842592835426E-003
   3.8411111111111116         -2.4555001873522997E-003
   3.8511111111111114         -1.5980367315933108E-003
   3.8611111111111112         -7.6630589319393039E-004
   3.8711111111111109          1.5756519132992253E-005
   3.8811111111111116          7.2545517468824983E-004
   3.8911111111111114          1.3421879848465323E-003
   3.9011111111111112          1.8482186133041978E-003
   3.9111111111111110          2.2293061483651400E-003
   3.9211111111111117          2.4751543533056974E-003
   3.9311111111111114          2.5796690024435520E-003
   3.9411111111111112          2.5410421658307314E-003
   3.9511111111111110          2.3616899270564318E-003
   3.9611111111111117          2.0480793900787830E-003
   3.9711111111111115          1.6104734968394041E-003
   3.9811111111111113          1.0626096045598388E-003
   3.9911111111111111          4.2132003000006080E-004
   4.0011111111111113         -2.9390922281891108E-004
   4.0111111111111111         -1.0614421917125583E-003
   4.0211111111111109         -1.8580610631033778E-003
   4.0311111111111106         -2.6595871895551682E-003
   4.0411111111111104         -3.4415358677506447E-003
   4.0511111111111120         -4.1797710582613945E-003
   4.0611111111111118         -4.8511163331568241E-003
   4.0711111111111116         -5.4338900372385979E-003
   4.0811111111111114         -5.9083239175379276E-003
   4.0911111111111111         -6.2568718567490578E-003
   4.1011111111111109         -6.4644268713891506E-003
   4.1111111111111107         -6.5184901468455791E-003
   4.1211111111111105         -6.4093559049069881E-003
   4.1311111111111121         -6.1303535476326942E-003
   4.1411111111111119         -5.6781843304634094E-003
   4.1511111111111116         -5.0533371977508068E-003
   4.1611111111111114         -4.2605460621416569E-003
   4.1711111111111112         -3.3092093653976917E-003
   4.1811111111111110         -2.2136787883937359E-003
   4.1911111111111108         -9.9333131220191717E-004
   4.2011111111111106          3.2764571369625628E-004
   4.2111111111111121          1.7207964556291699E-003
   4.2211111111111119          3.1542556826025248E-003
   4.2311111111111117          4.5938789844512939E-003
   4.2411111111111115          6.0045579448342323E-003
   4.2511111111111113          7.3516033589839935E-003
   4.2611111111111111          8.6020771414041519E-003
   4.2711111111111109          9.7259692847728729E-003
   4.2811111111111106          1.0697144083678722E-002
   4.2911111111111104          1.1494012549519539E-002
   4.3011111111111120          1.2099931947886944E-002
   4.3111111111111118          1.2503366917371750E-002
   4.3211111111111116          1.2697865255177021E-002
   4.3311111111111114          1.2681889347732067E-002
   4.3411111111111111          1.2458549812436104E-002
   4.3511111111111109          1.2035273946821690E-002
   4.3611111111111107          1.1423435062170029E-002
   4.3711111111111105          1.0637946426868439E-002
   4.3811111111111121          9.6968300640583038E-003
   4.3911111111111119          8.6207482963800430E-003
   4.4011111111111116          7.4325082823634148E-003
   4.4111111111111114          6.1565078794956207E-003
   4.4211111111111112          4.8181507736444473E-003
   4.4311111111111110          3.4432278480380774E-003
   4.4411111111111108          2.0572869107127190E-003
   4.4511111111111106          6.8502163048833609E-004
   4.4611111111111121         -6.5029971301555634E-004
   4.4711111111111119         -1.9273360958322883E-003
   4.4811111111111117         -3.1270878389477730E-003
   4.4911111111111115         -4.2332112789154053E-003
   4.5011111111111113         -5.2322251722216606E-003
   4.5111111111111111         -6.1136074364185333E-003
   4.5211111111111109         -6.8697924725711346E-003
   4.5311111111111106         -7.4960845522582531E-003
   4.5411111111111104         -7.9905157908797264E-003
   4.5511111111111120         -8.3536850288510323E-003