 -0.88888888888888884          0.0000000000000000     
 -0.87888888888888883         -5.3599098566390386E-035
 -0.86888888888888882         -5.7388977091890456E-030
 -0.85888888888888881         -1.3530198082669732E-027
 -0.84888888888888880         -3.1119791106395996E-025
 -0.83888888888888880         -1.0651077668853792E-024
 -0.82888888888888879         -2.4145557138922408E-024
 -0.81888888888888878         -1.2720576156471500E-023
 -0.80888888888888888         -6.0886310459762299E-023
 -0.79888888888888887         -1.6894347382586505E-022
 -0.78888888888888886         -2.3302746667482055E-022
 -0.77888888888888885          9.6857553633386249E-023
 -0.76888888888888884          1.1841513550577279E-021
 -0.75888888888888884          2.4900386142930079E-021
 -0.74888888888888883          1.5202989969420778E-021
 -0.73888888888888882         -5.3287140658347267E-021
 -0.72888888888888881         -1.7805678223901934E-020
 -0.71888888888888880         -2.4269815214429682E-020
 -0.70888888888888890         -5.3439709639078376E-022
 -0.69888888888888889          7.1925906889157307E-020
 -0.68888888888888888          1.6620525830861207E-019
 -0.67888888888888888          1.7614734888604005E-019
 -0.66888888888888887         -5.3686529145923297E-020
 -0.65888888888888886         -5.8686396509105931E-019
 -0.64888888888888885         -1.1814280511067982E-018
 -0.63888888888888884         -1.1810857017307778E-018
 -0.62888888888888883          2.3164451176935657E-019
 -0.61888888888888882          3.2962959226648797E-018
 -0.60888888888888881          6.7329114557208048E-018
 -0.59888888888888880          7.3846325846906156E-018
 -0.58888888888888880          1.3947363209907211E-018
 -0.57888888888888879         -1.2763035373765531E-017
 -0.56888888888888878         -3.0558235584525982E-017
 -0.55888888888888877         -3.9757982847385596E-017
 -0.54888888888888876         -2.4058738367645697E-017
 -0.53888888888888875          2.6814515393784485E-017
 -0.52888888888888885          1.0378504782038300E-016
 -0.51888888888888884          1.6999488030250778E-016
 -0.50888888888888884          1.6716084040989290E-016
 -0.49888888888888883          4.2064430401701904E-017
 -0.48888888888888882         -2.1262858963665848E-016
 -0.47888888888888881         -5.2244383381714406E-016
 -0.46888888888888886         -7.2685405981328809E-016
 -0.45888888888888885         -6.2719438670083365E-016
 -0.44888888888888884         -8.4665224564917893E-017
 -0.43888888888888883          8.6528010158096690E-016
 -0.42888888888888882          1.9407286650126310E-015
 -0.41888888888888881          2.6423080557732388E-015
 -0.40888888888888886          2.4093881830801727E-015
 -0.39888888888888885          8.7072382351429268E-016
 -0.38888888888888884         -1.9026867212855458E-015
 -0.37888888888888883         -5.2626868520585374E-015
 -0.36888888888888882         -8.0608728988073274E-015
 -0.35888888888888881         -8.9526977953453823E-015
 -0.34888888888888880         -6.8440075790899071E-015
 -0.33888888888888880         -1.3216281545788450E-015
 -0.32888888888888879          7.0947212846641811E-015
 -0.31888888888888878          1.6963659277735750E-014
 -0.30888888888888888          2.6149816294003363E-014
 -0.29888888888888887          3.2105736932951448E-014
 -0.28888888888888886          3.2029470086380671E-014
 -0.27888888888888885          2.2860809382671543E-014
 -0.26888888888888884          1.3646890861557671E-015
 -0.25888888888888884         -3.5145504399553690E-014
 -0.24888888888888883         -8.6804905440312358E-014
 -0.23888888888888882         -1.4767860870811000E-013
 -0.22888888888888881         -2.0153312612486429E-013
 -0.21888888888888880         -2.1918911455830192E-013
 -0.20888888888888879         -1.6100254538863740E-013
 -0.19888888888888878          1.2015835747995317E-014
 -0.18888888888888877          3.1727837588105268E-013
 -0.17888888888888888          7.2363453120297128E-013
 -0.16888888888888887          1.1283429702732550E-012
 -0.15888888888888886          1.3529265598458129E-012
 -0.14888888888888885          1.1727752016049697E-012
 -0.13888888888888884          3.8758883255662901E-013
 -0.12888888888888883         -1.0757585143864046E-012
 -0.11888888888888882         -3.0556703001227703E-012
 -0.10888888888888881         -5.0870787617063318E-012
  -9.8888888888888804E-002    -6.4187574526364255E-012
  -8.8888888888888795E-002    -6.1499195493086578E-012
  -7.8888888888888786E-002    -3.4873978704830222E-012
  -6.8888888888888777E-002     1.9181923844452387E-012
  -5.8888888888888768E-002     9.6406268385029747E-012
  -4.8888888888888871E-002     1.8260693304683606E-011
  -3.8888888888888862E-002     2.5374485498885768E-011
  -2.8888888888888853E-002     2.7909046601548582E-011
  -1.8888888888888844E-002     2.2768545729356937E-011
  -8.8888888888888351E-003     7.7538782686237262E-012
   1.1111111111111738E-003    -1.7391910828168378E-011
   1.1111111111111183E-002    -5.0045353278127536E-011
   2.1111111111111192E-002    -8.4165251157397591E-011
   3.1111111111111200E-002    -1.1046338149744983E-010
   4.1111111111111209E-002    -1.1753255313440292E-010
   5.1111111111111218E-002    -9.4037035103244904E-011
   6.1111111111111227E-002    -3.1838854469556921E-011
   7.1111111111111125E-002     7.0359745807380136E-011
   8.1111111111111134E-002     2.0358298380429574E-010
   9.1111111111111143E-002     3.4632663403755259E-010
  0.10111111111111115          4.6455148061674834E-010
  0.11111111111111116          5.1487586416598674E-010
  0.12111111111111117          4.5152109828805465E-010
  0.13111111111111118          2.3687976580255565E-010
  0.14111111111111119         -1.4536039039114712E-010
  0.15111111111111120         -6.7666844350000588E-010
  0.16111111111111120         -1.2928286219349161E-009
  0.17111111111111121         -1.8795867084975271E-009
  0.18111111111111122         -2.2785520137347248E-009
  0.19111111111111123         -2.3061605958218934E-009
  0.20111111111111124         -1.7864404400214084E-009
  0.21111111111111125         -5.9525279150207666E-010
  0.22111111111111126          1.2899549206579763E-009
  0.23111111111111127          3.7443332878694946E-009
  0.24111111111111128          6.4655458764661944E-009
  0.25111111111111128          8.9713969586568965E-009
  0.26111111111111129          1.0634438218914966E-008
  0.27111111111111108          1.0756934898381587E-008
  0.28111111111111109          8.6809297528134266E-009
  0.29111111111111110          3.9179153255020083E-009
  0.30111111111111111         -3.7273180097940894E-009
  0.31111111111111112         -1.4071637188806108E-008
  0.32111111111111112         -2.6543608200313429E-008
  0.33111111111111113         -4.0282333912955437E-008
  0.34111111111111114         -5.4370733693076545E-008
  0.35111111111111115         -6.8216195359127596E-008
  0.36111111111111116         -8.2076923035856453E-008
  0.37111111111111117         -9.7721361669300677E-008
  0.38111111111111118         -1.1920162990008976E-007
  0.39111111111111119         -1.5372951622794062E-007
  0.40111111111111120         -2.1266197336444748E-007
  0.41111111111111120         -3.1264079325410421E-007
  0.42111111111111121         -4.7697699301352259E-007
  0.43111111111111122         -7.3743120765357162E-007
  0.44111111111111123         -1.1366125818312867E-006
  0.45111111111111124         -1.7312885347564588E-006
  0.46111111111111125         -2.5969666239689104E-006
  0.47111111111111126         -3.8341786421369761E-006
  0.48111111111111127         -5.5770092330931220E-006
  0.49111111111111128         -8.0044310379889794E-006
  0.50111111111111128         -1.1355165952409152E-005
  0.51111111111111129         -1.5946827261359431E-005
  0.52111111111111108         -2.2200292733032256E-005
  0.53111111111111109         -3.0670245905639604E-005
  0.54111111111111110         -4.2083072912646458E-005
  0.55111111111111111         -5.7383262173971161E-005
  0.56111111111111112         -7.7789503848180175E-005
  0.57111111111111112         -1.0486164683243260E-004
  0.58111111111111113         -1.4057965017855167E-004
  0.59111111111111114         -1.8743520195130259E-004
  0.60111111111111115         -2.4853643844835460E-004
  0.61111111111111116         -3.2772545819170773E-004
  0.62111111111111117         -4.2970795766450465E-004
  0.63111111111111118         -5.6019256589934230E-004
  0.64111111111111119         -7.2603719308972359E-004
  0.65111111111111120         -9.3539757654070854E-004
  0.66111111111111120         -1.1978719849139452E-003
  0.67111111111111121         -1.5246332623064518E-003
  0.68111111111111122         -1.9285380840301514E-003
  0.69111111111111123         -2.4242002982646227E-003
  0.70111111111111124         -3.0280139762908220E-003
  0.71111111111111125         -3.7581066135317087E-003
  0.72111111111111126         -4.6342075802385807E-003
  0.73111111111111127         -5.6774071417748928E-003
  0.74111111111111128         -6.9097881205379963E-003
  0.75111111111111128         -8.3539104089140892E-003
  0.76111111111111129         -1.0032134130597115E-002
  0.77111111111111130         -1.1965760961174965E-002
  0.78111111111111109         -1.4174002222716808E-002
  0.79111111111111110         -1.6672756522893906E-002
  0.80111111111111111         -1.9473236054182053E-002
  0.81111111111111112         -2.2580437362194061E-002
  0.82111111111111112         -2.5991525501012802E-002
  0.83111111111111113         -2.9694143682718277E-002
  0.84111111111111114         -3.3664755523204803E-002
  0.85111111111111115         -3.7867084145545959E-002
  0.86111111111111116         -4.2250726372003555E-002
  0.87111111111111117         -4.6750083565711975E-002
  0.88111111111111118         -5.1283668726682663E-002
  0.89111111111111119         -5.5753935128450394E-002
  0.90111111111111120         -6.0047693550586700E-002
  0.91111111111111120         -6.4037255942821503E-002
  0.92111111111111121         -6.7582339048385620E-002
  0.93111111111111122         -7.0532783865928650E-002
  0.94111111111111123         -7.2732090950012207E-002
  0.95111111111111124         -7.4021764099597931E-002
  0.96111111111111125         -7.4246317148208618E-002
  0.97111111111111126         -7.3258943855762482E-002
  0.98111111111111127         -7.0927530527114868E-002
  0.99111111111111128         -6.7140936851501465E-002
   1.0011111111111113         -6.1815191060304642E-002
   1.0111111111111113         -5.4899368435144424E-002
   1.0211111111111113         -4.6380858868360519E-002
   1.0311111111111111         -3.6289677023887634E-002
   1.0411111111111111         -2.4701606482267380E-002
   1.0511111111111111         -1.1739859357476234E-002
   1.0611111111111111          2.4249022826552391E-003
   1.0711111111111111          1.7576338723301888E-002
   1.0811111111111111          3.3456068485975266E-002
   1.0911111111111111          4.9769144505262375E-002
   1.1011111111111112          6.6191285848617554E-002
   1.1111111111111112          8.2377620041370392E-002
   1.1211111111111114          9.7972668707370758E-002
   1.1311111111111112         0.11262122541666031     
   1.1411111111111114         0.12597964704036713     
   1.1511111111111112         0.13772717118263245     
   1.1611111111111110         0.14757671952247620     
   1.1711111111111112         0.15528480708599091     
   1.1811111111111110         0.16065995395183563     
   1.1911111111111112         0.16356942057609558     
   1.2011111111111110         0.16394378244876862     
   1.2111111111111112         0.16177925467491150     
   1.2211111111111110         0.15713761746883392     
   1.2311111111111113         0.15014375746250153     
   1.2411111111111111         0.14098097383975983     
   1.2511111111111113         0.12988424301147461     
   1.2611111111111111         0.11713186651468277     
   1.2711111111111113         0.10303566604852676     
   1.2811111111111111          8.7930388748645782E-002
   1.2911111111111113          7.2162657976150513E-002
   1.3011111111111111          5.6079961359500885E-002
   1.3111111111111113          4.0020156651735306E-002
   1.3211111111111111          2.4301843717694283E-002
   1.3311111111111114          9.2159565538167953E-003
   1.3411111111111111         -4.9811350181698799E-003
   1.3511111111111114         -1.8072888255119324E-002
   1.3611111111111112         -2.9886089265346527E-002
   1.3711111111111114         -4.0292583405971527E-002
   1.3811111111111112         -4.9209322780370712E-002
   1.3911111111111114         -5.6596852838993073E-002
   1.4011111111111112         -6.2456447631120682E-002
   1.4111111111111114         -6.6826134920120239E-002
   1.4211111111111112         -6.9775879383087158E-002
   1.4311111111111110         -7.1402199566364288E-002
   1.4411111111111112         -7.1822479367256165E-002
   1.4511111111111110         -7.1169234812259674E-002
   1.4611111111111112         -6.9584533572196960E-002
   1.4711111111111110         -6.7214742302894592E-002
   1.4811111111111113         -6.4205840229988098E-002
   1.4911111111111111         -6.0699302703142166E-002
   1.5011111111111113         -5.6828703731298447E-002
   1.5111111111111111         -5.2717022597789764E-002
   1.5211111111111113         -4.8474702984094620E-002
   1.5311111111111111         -4.4198427349328995E-002
   1.5411111111111113         -3.9970517158508301E-002
   1.5511111111111111         -3.5858940333127975E-002
   1.5611111111111113         -3.1917806714773178E-002
   1.5711111111111111         -2.8188280761241913E-002
   1.5811111111111114         -2.4699771776795387E-002
   1.5911111111111111         -2.1471338346600533E-002
   1.6011111111111114         -1.8513184040784836E-002
   1.6111111111111112         -1.5828153118491173E-002
   1.6211111111111114         -1.3413180597126484E-002
   1.6311111111111112         -1.1260602623224258E-002
   1.6411111111111114         -9.3593243509531021E-003
   1.6511111111111112         -7.6958234421908855E-003
   1.6611111111111114         -6.2549645081162453E-003
   1.6711111111111112         -5.0206542946398258E-003
   1.6811111111111110         -3.9763431996107101E-003
   1.6911111111111112         -3.1053961720317602E-003
   1.7011111111111110         -2.3913553450256586E-003
   1.7111111111111112         -1.8181200139224529E-003
   1.7211111111111110         -1.3700695708394051E-003
   1.7311111111111113         -1.0321467416360974E-003
   1.7411111111111111         -7.8991788905113935E-004
   1.7511111111111113         -6.2962248921394348E-004
   1.7611111111111111         -5.3821958135813475E-004
   1.7711111111111113         -5.0343800103291869E-004
   1.7811111111111111         -5.1383546087890863E-004
   1.7911111111111113         -5.5886473273858428E-004
   1.8011111111111111         -6.2894169241189957E-004
   1.8111111111111113         -7.1550440043210983E-004
   1.8211111111111111         -8.1104924902319908E-004
   1.8311111111111114         -9.0913224266842008E-004
   1.8411111111111111         -1.0043291840702295E-003
   1.8511111111111114         -1.0921547655016184E-003
   1.8611111111111112         -1.1689510429278016E-003
   1.8711111111111114         -1.2317604850977659E-003
   1.8811111111111112         -1.2782019330188632E-003
   1.8911111111111114         -1.3063682708889246E-003
   1.9011111111111112         -1.3147604186087847E-003
   1.9111111111111114         -1.3022687053307891E-003
   1.9211111111111112         -1.2682040687650442E-003
   1.9311111111111110         -1.2123738415539265E-003
   1.9411111111111112         -1.1351837310940027E-003
   1.9511111111111110         -1.0377422440797091E-003
   1.9611111111111112         -9.2193559976294637E-004
   1.9711111111111110         -7.9044606536626816E-004
   1.9811111111111113         -6.4669473795220256E-004
   1.9911111111111111         -4.9470533849671483E-004
   2.0011111111111113         -3.3890182385221124E-004
   2.0111111111111111         -1.8386531155556440E-004
   2.0211111111111113         -3.4083157515851781E-005
   2.0311111111111111          1.0627925075823441E-004
   2.0411111111111113          2.3355889425147325E-004
   2.0511111111111111          3.4471286926418543E-004
   2.0611111111111113          4.3736948282457888E-004
   2.0711111111111111          5.0981919048354030E-004
   2.0811111111111114          5.6096160551533103E-004
   2.0911111111111111          5.9023278299719095E-004
   2.1011111111111114          5.9753988170996308E-004
   2.1111111111111112          5.8322935365140438E-004
   2.1211111111111114          5.4810475558042526E-004
   2.1311111111111112          4.9349502660334110E-004
   2.1411111111111114          4.2135649709962308E-004
   2.1511111111111112          3.3437806996516883E-004
   2.1611111111111114          2.3605262686032802E-004
   2.1711111111111112          1.3068024418316782E-004
   2.1811111111111114          2.3281158064492047E-005
   2.1911111111111112         -8.0588404671289027E-005
   2.2011111111111110         -1.7510885663796216E-004
   2.2111111111111112         -2.5453808484598994E-004
   2.2211111111111110         -3.1359150307253003E-004
   2.2311111111111113         -3.4782759030349553E-004
   2.2411111111111111         -3.5400211345404387E-004
   2.2511111111111113         -3.3035367960110307E-004
   2.2611111111111111         -2.7678874903358519E-004
   2.2711111111111113         -1.9494276784826070E-004
   2.2811111111111111         -8.8110558863263577E-005
   2.2911111111111113          3.8945265259826556E-005
   2.3011111111111111          1.8028357590083033E-004
   2.3111111111111113          3.2914037001319230E-004
   2.3211111111111111          4.7831874690018594E-004
   2.3311111111111114          6.2058604089543223E-004
   2.3411111111111111          7.4905814835801721E-004
   2.3511111111111114          8.5755414329469204E-004
   2.3611111111111112          9.4090594211593270E-004
   2.3711111111111114          9.9520606454461813E-004
   2.3811111111111112          1.0179782984778285E-003
   2.3911111111111114          1.0082601802423596E-003
   2.4011111111111112          9.6659600967541337E-004
   2.4111111111111114          8.9494703570380807E-004
   2.4211111111111112          7.9653447028249502E-004
   2.4311111111111114          6.7563151242211461E-004
   2.4411111111111112          5.3731945808976889E-004
   2.4511111111111110          3.8721950841136277E-004
   2.4611111111111112          2.3121296544559300E-004
   2.4711111111111110          7.5163698056712747E-005
   2.4811111111111113         -7.5338510214351118E-005
   2.4911111111111111         -2.1519421716220677E-004
   2.5011111111111113         -3.3995485864579678E-004
   2.5111111111111111         -4.4592094491235912E-004
   2.5211111111111113         -5.3018337348476052E-004
   2.5311111111111111         -5.9061951469630003E-004
   2.5411111111111113         -6.2585936393588781E-004
   2.5511111111111111         -6.3523073913529515E-004
   2.5611111111111113         -6.1868672491982579E-004
   2.5711111111111111         -5.7671254035085440E-004
   2.5811111111111114         -5.1020964747294784E-004
   2.5911111111111111         -4.2035939986817539E-004
   2.6011111111111114         -3.0847507878206670E-004
   2.6111111111111112         -1.7585475870873779E-004
   2.6211111111111114         -2.3647142370464280E-005
   2.6311111111111112          1.4726264635100961E-004
   2.6411111111111114          3.3634359715506434E-004
   2.6511111111111112          5.4348335834220052E-004
   2.6611111111111114          7.6902186265215278E-004
   2.6711111111111112          1.0137439239770174E-003
   2.6811111111111114          1.2788231251761317E-003
   2.6911111111111112          1.5657111071050167E-003
   2.7011111111111110          1.8759781960397959E-003
   2.7111111111111112          2.2111230064183474E-003
   2.7211111111111110          2.5723727885633707E-003
   2.7311111111111113          2.9604944866150618E-003
   2.7411111111111111          3.3756301272660494E-003
   2.7511111111111113          3.8171538617461920E-003
   2.7611111111111111          4.2835446074604988E-003
   2.7711111111111113          4.7722593881189823E-003
   2.7811111111111111          5.2796108648180962E-003
   2.7911111111111113          5.8006448671221733E-003
   2.8011111111111111          6.3290321268141270E-003
   2.8111111111111113          6.8569858558475971E-003
   2.8211111111111111          7.3752165772020817E-003
   2.8311111111111114          7.8729381784796715E-003
   2.8411111111111111          8.3379326388239861E-003
   2.8511111111111114          8.7566953152418137E-003
   2.8611111111111112          9.1146593913435936E-003
   2.8711111111111114          9.3965241685509682E-003
   2.8811111111111112          9.5866750925779343E-003
   2.8911111111111114          9.6696754917502403E-003
   2.9011111111111112          9.6307955682277679E-003
   2.9111111111111114          9.4565441831946373E-003
   2.9211111111111112          9.1351559385657310E-003
   2.9311111111111114          8.6570242419838905E-003
   2.9411111111111112          8.0150766298174858E-003
   2.9511111111111110          7.2051039896905422E-003
   2.9611111111111112          6.2260716222226620E-003
   2.9711111111111110          5.0804209895431995E-003
   2.9811111111111113          3.7743747234344482E-003
   2.9911111111111111          2.3182339500635862E-003
   3.0011111111111113          7.2664156323298812E-004
   3.0111111111111111         -9.8122248891741037E-004
   3.0211111111111113         -2.7815662324428558E-003
   3.0311111111111111         -4.6460865996778011E-003
   3.0411111111111113         -6.5423068590462208E-003
   3.0511111111111111         -8.4342006593942642E-003
   3.0611111111111113         -1.0283124633133411E-002
   3.0711111111111111         -1.2049050070345402E-002
   3.0811111111111114         -1.3692034408450127E-002
   3.0911111111111111         -1.5173827297985554E-002
   3.1011111111111114         -1.6459491103887558E-002
   3.1111111111111112         -1.7518881708383560E-002
   3.1211111111111109         -1.8327873200178146E-002
   3.1311111111111116         -1.8869239836931229E-002
   3.1411111111111114         -1.9133131951093674E-002
   3.1511111111111112         -1.9117141142487526E-002
   3.1611111111111110         -1.8826019018888474E-002
   3.1711111111111117         -1.8271073698997498E-002
   3.1811111111111114         -1.7469378188252449E-002
   3.1911111111111112         -1.6442863270640373E-002
   3.2011111111111110         -1.5217401087284088E-002
   3.2111111111111108         -1.3821952044963837E-002
   3.2211111111111115         -1.2287800200283527E-002
   3.2311111111111113         -1.0647902265191078E-002
   3.2411111111111111         -8.9362915605306625E-003
   3.2511111111111108         -7.1874978020787239E-003
   3.2611111111111115         -5.4359175264835358E-003
   3.2711111111111113         -3.7150997668504715E-003
   3.2811111111111111         -2.0569346379488707E-003
   3.2911111111111109         -4.9078190932050347E-004
   3.3011111111111116          9.5741503173485398E-004
   3.3111111111111113          2.2659532260149717E-003
   3.3211111111111111          3.4180595539510250E-003
   3.3311111111111109          4.4023757800459862E-003
   3.3411111111111116          5.2131908014416695E-003
   3.3511111111111114          5.8503863401710987E-003
   3.3611111111111112          6.3191023655235767E-003
   3.3711111111111109          6.6291457042098045E-003
   3.3811111111111116          6.7942016758024693E-003
   3.3911111111111114          6.8309293128550053E-003
   3.4011111111111112          6.7580160684883595E-003
   3.4111111111111110          6.5952744334936142E-003
   3.4211111111111117          6.3628330826759338E-003
   3.4311111111111114          6.0804518871009350E-003
   3.4411111111111112          5.7669710367918015E-003
   3.4511111111111110          5.4398798383772373E-003
   3.4611111111111117          5.1149982027709484E-003
   3.4711111111111115          4.8062503337860107E-003
   3.4811111111111113          4.5255189761519432E-003
   3.4911111111111111          4.2825723066926003E-003
   3.5011111111111108          4.0850485675036907E-003
   3.5111111111111115          3.9384844712913036E-003
   3.5211111111111113          3.8463731762021780E-003
   3.5311111111111111          3.8102320395410061E-003
   3.5411111111111109          3.8296687416732311E-003
   3.5511111111111116          3.9024336729198694E-003
   3.5611111111111113          4.0244539268314838E-003
   3.5711111111111111          4.1898563504219055E-003
   3.5811111111111109          4.3909824453294277E-003
   3.5911111111111116          4.6184216625988483E-003
   3.6011111111111114          4.8610866069793701E-003
   3.6111111111111112          5.1063620485365391E-003
   3.6211111111111109          5.3403666242957115E-003
   3.6311111111111116          5.5483444593846798E-003
   3.6411111111111114          5.7151941582560539E-003
   3.6511111111111112          5.8261072263121605E-003
   3.6611111111111110          5.8672791346907616E-003
   3.6711111111111117          5.8266227133572102E-003
   3.6811111111111114          5.6944182142615318E-003
   3.6911111111111112          5.4638390429317951E-003
   3.7011111111111110          5.1313093863427639E-003
   3.7111111111111117          4.6966765075922012E-003
   3.7211111111111115          4.1632037609815598E-003
   3.7311111111111113          3.5374134313315153E-003
   3.7411111111111111          2.8288150206208229E-003
   3.7511111111111108          2.0495709031820297E-003
   3.7611111111111115          1.2141322949901223E-003
   3.7711111111111113          3.3887210884131491E-004
   3.7811111111111111         -5.5828096810728312E-004
   3.7911111111111109         -1.4582193689420819E-003
   3.8011111111111116         -2.3410716094076633E-003
   3.8111111111111113         -3.1866831704974174E-003
   3.8211111111111111         -3.9751869626343250E-003
   3.8311111111111109         -4.6876645646989346E-003
   3.8411111111111116         -5.3068781271576881E-003
   3.8511111111111114         -5.8180298656225204E-003
   3.8611111111111112         -6.2094829045236111E-003
   3.8711111111111109         -6.4733782783150673E-003
   3.8811111111111116         -6.6060768440365791E-003
   3.8911111111111114         -6.6083758138120174E-003
   3.9011111111111112         -6.4854808151721954E-003
   3.9111111111111110         -6.2467362731695175E-003
   3.9211111111111117         -5.9051457792520523E-003
   3.9311111111111114         -5.4767350666224957E-003
   3.9411111111111112         -4.9798176623880863E-003
   3.9511111111111110         -4.4342237524688244E-003
   3.9611111111111117         -3.8605455774813890E-003
   3.9711111111111115         -3.2794326543807983E-003
   3.9811111111111113         -2.7109587099403143E-003
   3.9911111111111111         -2.1740689408034086E-003
   4.0011111111111113         -1.6861039912328124E-003
   4.0111111111111111         -1.2623975053429604E-003
   4.0211111111111109         -9.1594003606587648E-004
   4.0311111111111106         -6.5710465423762798E-004
   4.0411111111111104         -4.9343169666826725E-004
   4.0511111111111120         -4.2947597103193402E-004
   4.0611111111111118         -4.6671798918396235E-004
   4.0711111111111116         -6.0354283777996898E-004
   4.0811111111111114         -8.3528709365054965E-004
   4.0911111111111111         -1.1543518630787730E-003
   4.1011111111111109         -1.5503705944865942E-003
   4.1111111111111107         -2.0104234572499990E-003
   4.1211111111111105         -2.5192871689796448E-003
   4.1311111111111121         -3.0597168952226639E-003
   4.1411111111111119         -3.6127651110291481E-003
   4.1511111111111116         -4.1581471450626850E-003
   4.1611111111111114         -4.6746716834604740E-003
   4.1711111111111112         -5.1407427527010441E-003
   4.1811111111111110         -5.5349403992295265E-003
   4.1911111111111108         -5.8366698212921619E-003
   4.2011111111111106         -6.0268561355769634E-003
   4.2111111111111121         -6.0886512510478497E-003
   4.2211111111111119         -6.0081253759562969E-003
   4.2311111111111117         -5.7748933322727680E-003
   4.2411111111111115         -5.3826388902962208E-003
   4.2511111111111113         -4.8294933512806892E-003
   4.2611111111111111         -4.1182320564985275E-003
   4.2711111111111109         -3.2562587875872850E-003
   4.2811111111111106         -2.2553708404302597E-003
   4.2911111111111104         -1.1313138529658318E-003
   4.3011111111111120          9.6836971351876855E-005
   4.3111111111111118          1.4074130449444056E-003
   4.3211111111111116          2.7769431471824646E-003
   4.3311111111111114          4.1809305548667908E-003
   4.3411111111111111          5.5945566855370998E-003
   4.3511111111111109          6.9932700134813786E-003
   4.3611111111111107          8.3532305434346199E-003
   4.3711111111111105          9.6516096964478493E-003
   4.3811111111111121          1.0866755619645119E-002
   4.3911111111111119          1.1978279799222946E-002
   4.4011111111111116          1.2967113405466080E-002
   4.4111111111111114          1.3815599493682384E-002
   4.4211111111111112          1.4507685787975788E-002
   4.4311111111111110          1.5029244124889374E-002
   4.4411111111111108          1.5368514694273472E-002
   4.4511111111111106          1.5516631305217743E-002
   4.4611111111111121          1.5468162484467030E-002
   4.4711111111111119          1.5221572481095791E-002
   4.4811111111111117          1.4779531396925449E-002
   4.4911111111111115          1.4149009250104427E-002
   4.5011111111111113          1.3341142795979977E-002
   4.5111111111111111          1.2370889075100422E-002
   4.5211111111111109          1.1256500147283077E-002
   4.5311111111111106          1.0018900968134403E-002
   4.5411111111111104          8.6810281500220299E-003
   4.5511111111111120          7.2671957314014435E-003