 -0.88888888888888884          0.0000000000000000     
 -0.87888888888888883          2.0364888413232204E-038
 -0.86888888888888882          5.2563763549804424E-034
 -0.85888888888888881          9.4140117720066472E-030
 -0.84888888888888880          2.8953718189838281E-028
 -0.83888888888888880          2.6127344351856081E-026
 -0.82888888888888879          1.3865981926987906E-025
 -0.81888888888888878          2.9156064863887359E-025
 -0.80888888888888888          2.2390332750120473E-025
 -0.79888888888888887          4.4056323556305698E-025
 -0.78888888888888886          4.8746945719013199E-024
 -0.77888888888888885          2.1161802783172472E-023
 -0.76888888888888884          4.8002422740970135E-023
 -0.75888888888888884          4.4872541368858869E-023
 -0.74888888888888883         -8.6500807068018563E-023
 -0.73888888888888882         -4.3186416186087547E-022
 -0.72888888888888881         -8.4173467973579739E-022
 -0.71888888888888880         -6.6163993126260053E-022
 -0.70888888888888890          1.1800747238479375E-021
 -0.69888888888888889          5.1846763949125291E-021
 -0.68888888888888888          9.3627127584392369E-021
 -0.67888888888888888          7.7153647970814094E-021
 -0.66888888888888887         -8.0542220815118848E-021
 -0.65888888888888886         -4.1018054500694808E-020
 -0.64888888888888885         -7.7029650042700701E-020
 -0.63888888888888884         -7.6876311436648683E-020
 -0.62888888888888883          1.2831619057389668E-020
 -0.61888888888888882          2.1896760699046342E-019
 -0.60888888888888881          4.7966699287210994E-019
 -0.59888888888888880          6.0006535407709935E-019
 -0.58888888888888880          2.8904911437112915E-019
 -0.57888888888888879         -6.7368639314827363E-019
 -0.56888888888888878         -2.1626347601984515E-018
 -0.55888888888888877         -3.4613157665322179E-018
 -0.54888888888888876         -3.2811411466622957E-018
 -0.53888888888888875         -2.6172715779274365E-019
 -0.52888888888888885          6.0313886772013201E-018
 -0.51888888888888884          1.3960560462990188E-017
 -0.50888888888888884          1.9242277418986231E-017
 -0.49888888888888883          1.5786055430666114E-017
 -0.48888888888888882         -1.5893800875329974E-018
 -0.47888888888888881         -3.3022502582272508E-017
 -0.46888888888888886         -6.9723656019580641E-017
 -0.45888888888888885         -9.2907450711743274E-017
 -0.44888888888888884         -7.8010649181157392E-017
 -0.43888888888888883         -5.0806893196788116E-018
 -0.42888888888888882          1.2672686240487182E-016
 -0.41888888888888881          2.8601367130219894E-016
 -0.40888888888888886          4.0516156082772510E-016
 -0.39888888888888885          3.9284728996142367E-016
 -0.38888888888888884          1.6605750058675537E-016
 -0.37888888888888883         -3.0330336076111292E-016
 -0.36888888888888882         -9.4158151768390392E-016
 -0.35888888888888881         -1.5481130120925017E-015
 -0.34888888888888880         -1.8145304967506336E-015
 -0.33888888888888880         -1.4033755160765943E-015
 -0.32888888888888879         -8.2376607715885778E-017
 -0.31888888888888878          2.1145590957887634E-015
 -0.30888888888888888          4.7536632494390128E-015
 -0.29888888888888887          6.9638017547541883E-015
 -0.28888888888888886          7.5585103632850106E-015
 -0.27888888888888885          5.3483494115967329E-015
 -0.26888888888888884         -3.8479685060270239E-016
 -0.25888888888888884         -9.3552112400124149E-015
 -0.24888888888888883         -1.9857115355226967E-014
 -0.23888888888888882         -2.8677272823117786E-014
 -0.22888888888888881         -3.1526027583850605E-014
 -0.21888888888888880         -2.4074021449287455E-014
 -0.20888888888888879         -3.5032998942400532E-015
 -0.19888888888888878          2.9741312223326849E-014
 -0.18888888888888877          7.0520195585843659E-014
 -0.17888888888888888          1.0851551861951192E-013
 -0.16888888888888887          1.2926476295610501E-013
 -0.15888888888888886          1.1700785739615638E-013
 -0.14888888888888885          5.9178790340341791E-014
 -0.13888888888888884         -4.8199488291659348E-014
 -0.12888888888888883         -1.9549207359251947E-013
 -0.11888888888888882         -3.5640124206905155E-013
 -0.10888888888888881         -4.8846110533087850E-013
  -9.8888888888888804E-002    -5.3820077734745286E-013
  -8.8888888888888795E-002    -4.5126348404561645E-013
  -7.8888888888888786E-002    -1.8668215844702685E-013
  -6.8888888888888777E-002     2.6662398959660660E-013
  -5.8888888888888768E-002     8.7406270372555883E-013
  -4.8888888888888871E-002     1.5439406480730056E-012
  -3.8888888888888862E-002     2.1244343090254247E-012
  -2.8888888888888853E-002     2.4130430726493346E-012
  -1.8888888888888844E-002     2.1821899755941621E-012
  -8.8888888888888351E-003     1.2234581837217151E-012
   1.1111111111111738E-003    -5.8955542271005301E-013
   1.1111111111111183E-002    -3.2242745799659911E-012
   2.1111111111111192E-002    -6.4094406865278231E-012
   3.1111111111111200E-002    -9.5728659374461067E-012
   4.1111111111111209E-002    -1.1825759989314566E-011
   5.1111111111111218E-002    -1.2028279414155740E-011
   6.1111111111111227E-002    -8.9682376108735085E-012
   7.1111111111111125E-002    -1.6690764438956340E-012
   8.1111111111111134E-002     1.0188889662532397E-011
   9.1111111111111143E-002     2.5796873318051361E-011
  0.10111111111111115          4.2812760281396578E-011
  0.11111111111111116          5.7186651247764786E-011
  0.12111111111111117          6.3399140104447582E-011
  0.13111111111111118          5.5264265386156808E-011
  0.14111111111111119          2.7354016621239374E-011
  0.15111111111111120         -2.3059916823275906E-011
  0.16111111111111120         -9.3859302274790224E-011
  0.17111111111111121         -1.7625116643937844E-010
  0.18111111111111122         -2.5393387392824707E-010
  0.19111111111111123         -3.0395308492359163E-010
  0.20111111111111124         -2.9977051396734566E-010
  0.21111111111111125         -2.1667277694259468E-010
  0.22111111111111126         -3.9057146405951926E-011
  0.23111111111111127          2.3156404571622602E-010
  0.24111111111111128          5.6964233330347724E-010
  0.25111111111111128          9.2195329148836436E-010
  0.26111111111111129          1.2093933632328913E-009
  0.27111111111111108          1.3357492889554123E-009
  0.28111111111111109          1.2037597585390358E-009
  0.29111111111111110          7.3709799375265561E-010
  0.30111111111111111         -9.4966888519731896E-011
  0.31111111111111112         -1.2551142347660971E-009
  0.32111111111111112         -2.6235515981909430E-009
  0.33111111111111113         -3.9972793963727327E-009
  0.34111111111111114         -5.1071569195926259E-009
  0.35111111111111115         -5.6540043757991043E-009
  0.36111111111111116         -5.3611253214569388E-009
  0.37111111111111117         -4.0364511733059771E-009
  0.38111111111111118         -1.6338232988744039E-009
  0.39111111111111119          1.6993426665834477E-009
  0.40111111111111120          5.6008806481600004E-009
  0.41111111111111120          9.5097423269407955E-009
  0.42111111111111121          1.2724801656815998E-008
  0.43111111111111122          1.4506195356034368E-008
  0.44111111111111123          1.4212341525876582E-008
  0.45111111111111124          1.1459983184636258E-008
  0.46111111111111125          6.2914926601820298E-009
  0.47111111111111126         -6.6633826234507865E-010
  0.48111111111111127         -8.0637656552084991E-009
  0.49111111111111128         -1.3713446378460503E-008
  0.50111111111111128         -1.4492651523312361E-008
  0.51111111111111129         -6.2418266111308185E-009
  0.52111111111111108          1.6373480349329839E-008
  0.53111111111111109          6.0083358732754277E-008
  0.54111111111111110          1.3337759696696594E-007
  0.55111111111111111          2.4708589307920192E-007
  0.56111111111111112          4.1526271843395079E-007
  0.57111111111111112          6.5647577685012948E-007
  0.58111111111111113          9.9561941624415340E-007
  0.59111111111111114          1.4663924048363697E-006
  0.60111111111111115          2.1146061044419184E-006
  0.61111111111111116          3.0025064461369766E-006
  0.62111111111111117          4.2143224163737614E-006
  0.63111111111111118          5.8632713262340985E-006
  0.64111111111111119          8.1002472143154591E-006
  0.65111111111111120          1.1124428056064062E-005
  0.66111111111111120          1.5196062122413423E-005
  0.67111111111111121          2.0651634258683771E-005
  0.68111111111111122          2.7921660148422234E-005
  0.69111111111111123          3.7551304558292031E-005
  0.70111111111111124          5.0223989092046395E-005
  0.71111111111111125          6.6788154072128236E-005
  0.72111111111111126          8.8287146354559809E-005
  0.73111111111111127          1.1599221761571243E-004
  0.74111111111111128          1.5143818745855242E-004
  0.75111111111111128          1.9646123109851032E-004
  0.76111111111111129          2.5323755107820034E-004
  0.77111111111111130          3.2432144507765770E-004
  0.78111111111111109          4.1268055792897940E-004
  0.79111111111111110          5.2172504365444183E-004
  0.80111111111111111          6.5532728331163526E-004
  0.81111111111111112          8.1782706547528505E-004
  0.82111111111111112          1.0140178492292762E-003
  0.83111111111111113          1.2491078814491630E-003
  0.84111111111111114          1.5286509878933430E-003
  0.85111111111111115          1.8584405770525336E-003
  0.86111111111111116          2.2443628404289484E-003
  0.87111111111111117          2.6922046672552824E-003
  0.88111111111111118          3.2074127811938524E-003
  0.89111111111111119          3.7948051467537880E-003
  0.90111111111111120          4.4582360424101353E-003
  0.91111111111111120          5.2002165466547012E-003
  0.92111111111111121          6.0215066187083721E-003
  0.93111111111111122          6.9206808693706989E-003
  0.94111111111111123          7.8936917707324028E-003
  0.95111111111111124          8.9334473013877869E-003
  0.96111111111111125          1.0029423981904984E-002
  0.97111111111111126          1.1167346499860287E-002
  0.98111111111111127          1.2328951619565487E-002
  0.99111111111111128          1.3491881079971790E-002
   1.0011111111111113          1.4629711396992207E-002
   1.0111111111111113          1.5712156891822815E-002
   1.0211111111111113          1.6705462709069252E-002
   1.0311111111111111          1.7572993412613869E-002
   1.0411111111111111          1.8276028335094452E-002
   1.0511111111111111          1.8774751573801041E-002
   1.0611111111111111          1.9029427319765091E-002
   1.0711111111111111          1.9001718610525131E-002
   1.0811111111111111          1.8656130880117416E-002
   1.0911111111111111          1.7961511388421059E-002
   1.1011111111111112          1.6892557963728905E-002
   1.1111111111111112          1.5431272797286510E-002
   1.1211111111111114          1.3568289577960968E-002
   1.1311111111111112          1.1304017156362534E-002
   1.1411111111111114          8.6495243012905121E-003
   1.1511111111111112          5.6271115317940712E-003
   1.1611111111111110          2.2705248557031155E-003
   1.1711111111111112         -1.3752266531810164E-003
   1.1811111111111110         -5.2544684149324894E-003
   1.1911111111111112         -9.3018738552927971E-003
   1.2011111111111110         -1.3443875126540661E-002
   1.2111111111111112         -1.7600435763597488E-002
   1.2211111111111110         -2.1687129512429237E-002
   1.2311111111111113         -2.5617457926273346E-002
   1.2411111111111111         -2.9305323958396912E-002
   1.2511111111111113         -3.2667566090822220E-002
   1.2611111111111111         -3.5626474767923355E-002
   1.2711111111111113         -3.8112167268991470E-002
   1.2811111111111111         -4.0064767003059387E-002
   1.2911111111111113         -4.1436269879341125E-002
   1.3011111111111111         -4.2192075401544571E-002
   1.3111111111111113         -4.2312085628509521E-002
   1.3211111111111111         -4.1791357100009918E-002
   1.3311111111111114         -4.0640283375978470E-002
   1.3411111111111111         -3.8884300738573074E-002
   1.3511111111111114         -3.6563131958246231E-002
   1.3611111111111112         -3.3729597926139832E-002
   1.3711111111111114         -3.0448043718934059E-002
   1.3811111111111112         -2.6792431250214577E-002
   1.3911111111111114         -2.2844161838293076E-002
   1.4011111111111112         -1.8689708784222603E-002
   1.4111111111111114         -1.4418144710361958E-002
   1.4211111111111112         -1.0118640959262848E-002
   1.4311111111111110         -5.8780154213309288E-003
   1.4411111111111112         -1.7784187803044915E-003
   1.4511111111111110          2.1047785412520170E-003
   1.4611111111111112          5.7048317976295948E-003
   1.4711111111111110          8.9651541784405708E-003
   1.4811111111111113          1.1840493418276310E-002
   1.4911111111111111          1.4297732152044773E-002
   1.5011111111111113          1.6316294670104980E-002
   1.5111111111111111          1.7888154834508896E-002
   1.5211111111111113          1.9017469137907028E-002
   1.5311111111111111          1.9719835370779037E-002
   1.5411111111111113          2.0021226257085800E-002
   1.5511111111111111          1.9956629723310471E-002
   1.5611111111111113          1.9568450748920441E-002
   1.5711111111111111          1.8904732540249825E-002
   1.5811111111111114          1.8017271533608437E-002
   1.5911111111111111          1.6959697008132935E-002
   1.6011111111111114          1.5785587951540947E-002
   1.6111111111111112          1.4546688646078110E-002
   1.6211111111111114          1.3291298411786556E-002
   1.6311111111111112          1.2062884867191315E-002
   1.6411111111111114          1.0898949578404427E-002
   1.6511111111111112          9.8301824182271957E-003
   1.6611111111111114          8.8799092918634415E-003
   1.6711111111111112          8.0638332292437553E-003
   1.6811111111111110          7.3900506831705570E-003
   1.6911111111111112          6.8593323230743408E-003
   1.7011111111111110          6.4656320028007030E-003
   1.7111111111111112          6.1968052759766579E-003
   1.7211111111111110          6.0355048626661301E-003
   1.7311111111111113          5.9602176770567894E-003
   1.7411111111111111          5.9464075602591038E-003
   1.7511111111111113          5.9677264653146267E-003
   1.7611111111111111          5.9972447343170643E-003
   1.7711111111111113          6.0086580924689770E-003
   1.7811111111111111          5.9774173423647881E-003
   1.7911111111111113          5.8817444369196892E-003
   1.8011111111111111          5.7034860365092754E-003
   1.8111111111111113          5.4287840612232685E-003
   1.8211111111111111          5.0485348328948021E-003
   1.8311111111111114          4.5586368069052696E-003
   1.8411111111111111          3.9600273594260216E-003
   1.8511111111111114          3.2585246954113245E-003
   1.8611111111111112          2.4644928053021431E-003
   1.8711111111111114          1.5923574101179838E-003
   1.8811111111111112          6.5999134676530957E-004
   1.8911111111111114         -3.1200502417050302E-004
   1.9011111111111112         -1.3011088594794273E-003
   1.9111111111111114         -2.2837426513433456E-003
   1.9211111111111112         -3.2361808698624372E-003
   1.9311111111111110         -4.1354647837579250E-003
   1.9411111111111112         -4.9602882936596870E-003
   1.9511111111111110         -5.6918137706816196E-003
   1.9611111111111112         -6.3143754377961159E-003
   1.9711111111111110         -6.8160295486450195E-003
   1.9811111111111113         -7.1889148093760014E-003
   1.9911111111111111         -7.4294088408350945E-003
   2.0011111111111113         -7.5380732305347919E-003
   2.0111111111111111         -7.5194011442363262E-003
   2.0211111111111113         -7.3813940398395061E-003
   2.0311111111111111         -7.1350121870636940E-003
   2.0411111111111113         -6.7935385741293430E-003
   2.0511111111111111         -6.3719055615365505E-003
   2.0611111111111113         -5.8860229328274727E-003
   2.0711111111111111         -5.3521296940743923E-003
   2.0811111111111114         -4.7861943021416664E-003
   2.0911111111111111         -4.2033717036247253E-003
   2.1011111111111114         -3.6175178829580545E-003
   2.1111111111111112         -3.0407761223614216E-003
   2.1211111111111114         -2.4832407943904400E-003
   2.1311111111111112         -1.9527190597727895E-003
   2.1411111111111114         -1.4546066522598267E-003
   2.1511111111111112         -9.9190103355795145E-004
   2.1611111111111114         -5.6536064948886633E-004
   2.1711111111111112         -1.7381049110554159E-004
   2.1811111111111114          1.8542450561653823E-004
   2.1911111111111112          5.1599519792944193E-004
   2.2011111111111110          8.2196388393640518E-004
   2.2111111111111112          1.1072597699239850E-003
   2.2211111111111110          1.3752127997577190E-003
   2.2311111111111113          1.6282129799947143E-003
   2.2411111111111111          1.8675234168767929E-003
   2.2511111111111113          2.0932494662702084E-003
   2.2611111111111111          2.3044419940561056E-003
   2.2711111111111113          2.4992944672703743E-003
   2.2811111111111111          2.6753800921142101E-003
   2.2911111111111113          2.8298806864768267E-003
   2.3011111111111111          2.9597724787890911E-003
   2.3111111111111113          3.0619504395872355E-003
   2.3211111111111111          3.1333002261817455E-003
   2.3311111111111114          3.1707461457699537E-003
   2.3411111111111111          3.1713114585727453E-003
   2.3511111111111114          3.1322333961725235E-003
   2.3611111111111112          3.0511564109474421E-003
   2.3711111111111114          2.9264115728437901E-003
   2.3811111111111112          2.7573618572205305E-003
   2.3911111111111114          2.5447707157582045E-003
   2.4011111111111112          2.2911340929567814E-003
   2.4111111111111114          2.0009102299809456E-003
   2.4211111111111112          1.6805935883894563E-003
   2.4311111111111114          1.3385975034907460E-003
   2.4411111111111112          9.8493963014334440E-004
   2.4511111111111110          6.3075649086385965E-004
   2.4611111111111112          2.8769951313734055E-004
   2.4711111111111110         -3.2719603041186929E-005
   2.4811111111111113         -3.1976291211321950E-004
   2.4911111111111111         -5.6401925394311547E-004
   2.5011111111111113         -7.5783632928505540E-004
   2.5111111111111111         -8.9561654021963477E-004
   2.5211111111111113         -9.7398535581305623E-004
   2.5311111111111111         -9.9185644648969173E-004
   2.5411111111111113         -9.5042493194341660E-004
   2.5511111111111111         -8.5311505245044827E-004
   2.5611111111111113         -7.0549454540014267E-004
   2.5711111111111111         -5.1515246741473675E-004
   2.5811111111111114         -2.9152058414183557E-004
   2.5911111111111111         -4.5609911467181519E-005
   2.6011111111111114          2.1036367979831994E-004
   2.6111111111111112          4.6347838360816240E-004
   2.6211111111111114          7.0072110975161195E-004
   2.6311111111111112          9.0968247968703508E-004
   2.6411111111111114          1.0792735265567899E-003
   2.6511111111111112          1.2003893498331308E-003
   2.6611111111111114          1.2664452660828829E-003
   2.6711111111111112          1.2737215729430318E-003
   2.6811111111111114          1.2214820599183440E-003
   2.6911111111111112          1.1118635302409530E-003
   2.7011111111111110          9.4956764951348305E-004
   2.7111111111111112          7.4141507502645254E-004
   2.7211111111111110          4.9583375221118331E-004
   2.7311111111111113          2.2235303185880184E-004
   2.7411111111111111         -6.8843321059830487E-005
   2.7511111111111113         -3.6727820406667888E-004
   2.7611111111111111         -6.6246261121705174E-004
   2.7711111111111113         -9.4413000624626875E-004
   2.7811111111111111         -1.2024722527712584E-003
   2.7911111111111113         -1.4284261269494891E-003
   2.8011111111111111         -1.6140419756993651E-003
   2.8111111111111113         -1.7529361648485065E-003
   2.8211111111111111         -1.8407934112474322E-003
   2.8311111111111114         -1.8758507212623954E-003
   2.8411111111111111         -1.8592765554785728E-003
   2.8511111111111114         -1.7953542992472649E-003
   2.8611111111111112         -1.6914003062993288E-003
   2.8711111111111114         -1.5573822893202305E-003
   2.8811111111111112         -1.4052541228011250E-003
   2.8911111111111114         -1.2480708537623286E-003
   2.9011111111111112         -1.0989875299856067E-003
   2.9111111111111114         -9.7026815637946129E-004
   2.9211111111111112         -8.7242457084357738E-004
   2.9311111111111114         -8.1358314491808414E-004
   2.9411111111111112         -7.9913000809028745E-004
   2.9511111111111110         -8.3163438830524683E-004
   2.9611111111111112         -9.1099936980754137E-004
   2.9711111111111110         -1.0347538627684116E-003
   2.9811111111111113         -1.1983865406364202E-003
   2.9911111111111111         -1.3956334441900253E-003
   3.0011111111111113         -1.6186630818992853E-003
   3.0111111111111111         -1.8581507029011846E-003
   3.0211111111111113         -2.1032800432294607E-003
   3.0311111111111111         -2.3417496122419834E-003
   3.0411111111111113         -2.5598776992410421E-003
   3.0511111111111111         -2.7428921312093735E-003
   3.0611111111111113         -2.8754605446010828E-003
   3.0711111111111111         -2.9424673411995173E-003
   3.0811111111111114         -2.9299883171916008E-003
   3.0911111111111111         -2.8263682033866644E-003
   3.1011111111111114         -2.6232718955725431E-003
   3.1111111111111112         -2.3165734019130468E-003
   3.1211111111111109         -1.9069680711254478E-003
   3.1311111111111116         -1.4002320822328329E-003
   3.1411111111111114         -8.0710445763543248E-004
   3.1511111111111112         -1.4282308984547853E-004
   3.1611111111111110          5.7361327344551682E-004
   3.1711111111111117          1.3203597627580166E-003
   3.1811111111111114          2.0737196318805218E-003
   3.1911111111111112          2.8091357089579105E-003
   3.2011111111111110          3.5021337680518627E-003
   3.2111111111111108          4.1291993111371994E-003
   3.2211111111111115          4.6685985289514065E-003
   3.2311111111111113          5.1011652685701847E-003
   3.2411111111111111          5.4110693745315075E-003
   3.2511111111111108          5.5865538306534290E-003
   3.2611111111111115          5.6206113658845425E-003
   3.2711111111111113          5.5115264840424061E-003
   3.2811111111111111          5.2632107399404049E-003
   3.2911111111111109          4.8852418549358845E-003
   3.3011111111111116          4.3925596401095390E-003
   3.3111111111111113          3.8047898560762405E-003
   3.3211111111111111          3.1452337279915810E-003
   3.3311111111111109          2.4395936634391546E-003
   3.3411111111111116          1.7145540332421660E-003
   3.3511111111111114          9.9634332582354546E-004
   3.3611111111111112          3.0940657597966492E-004
   3.3711111111111109         -3.2471539452672005E-004
   3.3811111111111116         -8.8823755504563451E-004
   3.3911111111111114         -1.3676956295967102E-003
   3.4011111111111112         -1.7542408313602209E-003
   3.4111111111111110         -2.0437026396393776E-003
   3.4211111111111117         -2.2364612668752670E-003
   3.4311111111111114         -2.3371593561023474E-003
   3.4411111111111112         -2.3542635608464479E-003
   3.4511111111111110         -2.2994705941528082E-003
   3.4611111111111117         -2.1869402844458818E-003
   3.4711111111111115         -2.0323502831161022E-003
   3.4811111111111113         -1.8517923308536410E-003
   3.4911111111111111         -1.6605635173618793E-003
   3.5011111111111108         -1.4719513710588217E-003
   3.5111111111111115         -1.2961397878825665E-003
   3.5211111111111113         -1.1393771274015307E-003
   3.5311111111111111         -1.0035317391157150E-003
   3.5411111111111109         -8.8612065883353353E-004
   3.5511111111111116         -7.8082940308377147E-004
   3.5611111111111113         -6.7846896126866341E-004
   3.5711111111111111         -5.6824152125045657E-004
   3.5811111111111109         -4.3913879198953509E-004
   3.5911111111111116         -2.8127367841079831E-004
   3.6011111111111114         -8.6966058006510139E-005
   3.6111111111111112          1.4854801702313125E-004
   3.6211111111111109          4.2683936771936715E-004
   3.6311111111111116          7.4641418177634478E-004
   3.6411111111111114          1.1031493777409196E-003
   3.6511111111111112          1.4908885350450873E-003
   3.6611111111111110          1.9020400941371918E-003
   3.6711111111111117          2.3280412424355745E-003
   3.6811111111111114          2.7596051804721355E-003
   3.6911111111111112          3.1867413781583309E-003
   3.7011111111111110          3.5986071452498436E-003
   3.7111111111111117          3.9833034388720989E-003
   3.7211111111111115          4.3277572840452194E-003
   3.7311111111111113          4.6178153716027737E-003
   3.7411111111111111          4.8386380076408386E-003
   3.7511111111111108          4.9754097126424313E-003
   3.7611111111111115          5.0143082626163960E-003
   3.7711111111111113          4.9436078406870365E-003
   3.7811111111111111          4.7547477297484875E-003
   3.7911111111111109          4.4431900605559349E-003
   3.8011111111111116          4.0089264512062073E-003
   3.8111111111111113          3.4565425012260675E-003
   3.8211111111111111          2.7948382776230574E-003
   3.8311111111111109          2.0360832568258047E-003
   3.8411111111111116          1.1950447224080563E-003
   3.8511111111111114          2.8797038248740137E-004
   3.8611111111111112         -6.6829955903813243E-004
   3.8711111111111109         -1.6569526633247733E-003
   3.8811111111111116         -2.6614891830831766E-003
   3.8911111111111114         -3.6656858865171671E-003
   3.9011111111111112         -4.6533322893083096E-003
   3.9111111111111110         -5.6078936904668808E-003
   3.9211111111111117         -6.5122763626277447E-003
   3.9311111111111114         -7.3488559573888779E-003
   3.9411111111111112         -8.0998744815587997E-003
   3.9511111111111110         -8.7482314556837082E-003
   3.9611111111111117         -9.2786066234111786E-003
   3.9711111111111115         -9.6787726506590843E-003
   3.9811111111111113         -9.9409054964780807E-003
   3.9911111111111111         -1.0062693618237972E-002
   4.0011111111111113         -1.0048074647784233E-002
   4.0111111111111111         -9.9075017496943474E-003
   4.0211111111111109         -9.6577117219567299E-003
   4.0311111111111106         -9.3210842460393906E-003
   4.0411111111111104         -8.9247133582830429E-003
   4.0511111111111120         -8.4993708878755569E-003
   4.0611111111111118         -8.0785192549228668E-003
   4.0711111111111116         -7.6974774710834026E-003
   4.0811111111111114         -7.3927715420722961E-003
   4.0911111111111111         -7.2016054764389992E-003
   4.1011111111111109         -7.1613248437643051E-003
   4.1111111111111107         -7.3087015189230442E-003
   4.1211111111111105         -7.6788854785263538E-003
   4.1311111111111121         -8.3039188757538795E-003
   4.1411111111111119         -9.2108156532049179E-003
   4.1511111111111116         -1.0419308207929134E-002
   4.1611111111111114         -1.1939476244151592E-002
   4.1711111111111112         -1.3769537210464478E-002
   4.1811111111111110         -1.5894090756773949E-002
   4.1911111111111108         -1.8283087760210037E-002
   4.2011111111111106         -2.0891670137643814E-002
   4.2111111111111121         -2.3660950362682343E-002
   4.2211111111111119         -2.6519633829593658E-002
   4.2311111111111117         -2.9386283829808235E-002
   4.2411111111111115         -3.2172005623579025E-002
   4.2511111111111113         -3.4783236682415009E-002
   4.2611111111111111         -3.7124477326869965E-002
   4.2711111111111109         -3.9100788533687592E-002
   4.2811111111111106         -4.0620040148496628E-002
   4.2911111111111104         -4.1594967246055603E-002
   4.3011111111111120         -4.1945155709981918E-002
   4.3111111111111118         -4.1599046438932419E-002
   4.3211111111111116         -4.0496099740266800E-002
   4.3311111111111114         -3.8589049130678177E-002
   4.3411111111111111         -3.5846218466758728E-002
   4.3511111111111109         -3.2253682613372803E-002
   4.3611111111111107         -2.7817059308290482E-002
   4.3711111111111105         -2.2562731057405472E-002
   4.3811111111111121         -1.6538273543119431E-002
   4.3911111111111119         -9.8120355978608131E-003
   4.4011111111111116         -2.4718819186091423E-003
   4.4111111111111114          5.3768004290759563E-003
   4.4211111111111112          1.3613627292215824E-002
   4.4311111111111110          2.2106060758233070E-002
   4.4411111111111108          3.0712382867932320E-002
   4.4511111111111106          3.9284668862819672E-002
   4.4611111111111121          4.7671690583229065E-002
   4.4711111111111119          5.5721789598464966E-002
   4.4811111111111117          6.3285790383815765E-002
   4.4911111111111115          7.0220053195953369E-002
   4.5011111111111113          7.6389670372009277E-002
   4.5111111111111111          8.1671863794326782E-002
   4.5211111111111109          8.5959427058696747E-002
   4.5311111111111106          8.9164048433303833E-002
   4.5411111111111104          9.1219291090965271E-002
   4.5511111111111120          9.2082917690277100E-002