 -0.88888888888888884          0.0000000000000000     
 -0.87888888888888883          0.0000000000000000     
 -0.86888888888888882          0.0000000000000000     
 -0.85888888888888881          0.0000000000000000     
 -0.84888888888888880          0.0000000000000000     
 -0.83888888888888880          0.0000000000000000     
 -0.82888888888888879         -4.8265841810116763E-036
 -0.81888888888888878          1.4642766647166380E-035
 -0.80888888888888888         -1.8308776344698225E-033
 -0.79888888888888887         -1.3544787940983353E-032
 -0.78888888888888886         -3.6706847648388727E-032
 -0.77888888888888885         -3.1610283240151429E-032
 -0.76888888888888884         -8.1366110006026053E-033
 -0.75888888888888884         -4.7577658949814355E-031
 -0.74888888888888883         -2.7161800018122754E-030
 -0.73888888888888882         -6.6821455974188069E-030
 -0.72888888888888881         -5.0865622913753607E-030
 -0.71888888888888880          1.9438996230847533E-029
 -0.70888888888888890          7.5326544669167158E-029
 -0.69888888888888889          1.1091100734223115E-028
 -0.68888888888888888         -2.3091498296253621E-029
 -0.67888888888888888         -4.7558008859624540E-028
 -0.66888888888888887         -1.0696816170805896E-027
 -0.65888888888888886         -9.3570911532415255E-028
 -0.64888888888888885          1.2773774652537063E-027
 -0.63888888888888884          5.9228712914303647E-027
 -0.62888888888888883          9.9114571840027639E-027
 -0.61888888888888882          5.6317754544279893E-027
 -0.60888888888888881         -1.5008319077886809E-026
 -0.59888888888888880         -4.9711940405664048E-026
 -0.58888888888888880         -7.3431622726515291E-026
 -0.57888888888888879         -3.8579368910837934E-026
 -0.56888888888888878          9.6721446728243036E-026
 -0.55888888888888877          3.1219051994985759E-025
 -0.54888888888888876          4.7200476605483769E-025
 -0.53888888888888875          3.3449832305814997E-025
 -0.52888888888888885         -3.2079667195107608E-025
 -0.51888888888888884         -1.4580587108681431E-024
 -0.50888888888888884         -2.5588016914250711E-024
 -0.49888888888888883         -2.6093238936694982E-024
 -0.48888888888888882         -4.8847351935029730E-025
 -0.47888888888888881          4.2375075584966995E-024
 -0.46888888888888886          1.0407072735677165E-023
 -0.45888888888888885          1.4808578954342977E-023
 -0.44888888888888884          1.2787299589556903E-023
 -0.43888888888888883          1.9832742157400143E-025
 -0.42888888888888882         -2.3665653607231206E-023
 -0.41888888888888881         -5.3284177823005002E-023
 -0.40888888888888886         -7.5826118003410601E-023
 -0.39888888888888885         -7.3190148754945453E-023
 -0.38888888888888884         -2.7720363950187376E-023
 -0.37888888888888883          6.9200248068518619E-023
 -0.36888888888888882          2.0781527019556528E-022
 -0.35888888888888881          3.5286010823445116E-022
 -0.34888888888888880          4.4162190425280349E-022
 -0.33888888888888880          3.8985303987630667E-022
 -0.32888888888888879          1.0826325801075718E-022
 -0.31888888888888878         -4.6678906624070151E-022
 -0.30888888888888888         -1.3243458471109826E-021
 -0.29888888888888887         -2.3115729834959500E-021
 -0.28888888888888886         -3.0621739581088999E-021
 -0.27888888888888885         -2.9615198504415129E-021
 -0.26888888888888884         -1.2221690485699017E-021
 -0.25888888888888884          2.8416485357648647E-021
 -0.24888888888888883          9.2915631088561723E-021
 -0.23888888888888882          1.6871568361305088E-020
 -0.22888888888888881          2.2428160588478587E-020
 -0.21888888888888880          2.0945004747538268E-020
 -0.20888888888888879          6.7697147955871689E-021
 -0.19888888888888878         -2.3631965258097532E-020
 -0.18888888888888877         -6.7733600448373709E-020
 -0.17888888888888888         -1.1318451908291446E-019
 -0.16888888888888887         -1.3661572825258023E-019
 -0.15888888888888886         -1.0779815804086496E-019
 -0.14888888888888885         -9.8435825753195755E-022
 -0.13888888888888884          1.8749043785188850E-019
 -0.12888888888888883          4.2058732368052333E-019
 -0.11888888888888882          6.1070434432060326E-019
 -0.10888888888888881          6.3062910902426260E-019
  -9.8888888888888804E-002     3.5425095407137386E-019
  -8.8888888888888795E-002    -2.7475931079533418E-019
  -7.8888888888888786E-002    -1.1657782075076012E-018
  -6.8888888888888777E-002    -2.0340087953319151E-018
  -5.8888888888888768E-002    -2.4309866265713734E-018
  -4.8888888888888871E-002    -1.8872524790042883E-018
  -3.8888888888888862E-002    -1.5754485824094086E-019
  -2.8888888888888853E-002     2.5097805430007246E-018
  -1.8888888888888844E-002     5.2239834715525977E-018
  -8.8888888888888351E-003     6.5891644224616459E-018
   1.1111111111111738E-003     5.2231939276579158E-018
   1.1111111111111183E-002     5.7917532129737892E-019
   2.1111111111111192E-002    -6.2470921519464669E-018
   3.1111111111111200E-002    -1.2229967926992471E-017
   4.1111111111111209E-002    -1.3146655272088024E-017
   5.1111111111111218E-002    -5.5079359642782696E-018
   6.1111111111111227E-002     1.0764580248727217E-017
   7.1111111111111125E-002     3.0104424448144690E-017
   8.1111111111111134E-002     4.1160709112708120E-017
   9.1111111111111143E-002     3.0144880197543434E-017
  0.10111111111111115         -1.2194404123736366E-017
  0.11111111111111116         -8.1902494258549984E-017
  0.12111111111111117         -1.5554557024842329E-016
  0.13111111111111118         -1.9144072220558220E-016
  0.14111111111111119         -1.4214438405722718E-016
  0.15111111111111120          2.2317402409852141E-017
  0.16111111111111120          2.8735296274070600E-016
  0.17111111111111121          5.7570367735371836E-016
  0.18111111111111122          7.5323389510389841E-016
  0.19111111111111123          6.6837834620619941E-016
  0.20111111111111124          2.2181550898257862E-016
  0.21111111111111125         -5.5521045634872941E-016
  0.22111111111111126         -1.4511950787511911E-015
  0.23111111111111127         -2.0941072735190715E-015
  0.24111111111111128         -2.0647787577203914E-015
  0.25111111111111128         -1.0905091798107600E-015
  0.26111111111111129          7.4359222494442111E-016
  0.27111111111111108          2.8681958609381997E-015
  0.28111111111111109          4.2970908915287900E-015
  0.29111111111111110          3.9498450761206796E-015
  0.30111111111111111          1.1893943471720687E-015
  0.31111111111111112         -3.5969249869989128E-015
  0.32111111111111112         -8.6529540111357668E-015
  0.33111111111111113         -1.1047609326647872E-014
  0.34111111111111114         -7.5918495800889399E-015
  0.35111111111111115          3.6014540721678815E-015
  0.36111111111111116          2.1351244204733874E-014
  0.37111111111111117          4.0195548712401719E-014
  0.38111111111111118          5.0616479865990549E-014
  0.39111111111111119          4.1361316769576023E-014
  0.40111111111111120          3.8800813250024473E-015
  0.41111111111111120         -6.2056608495560800E-014
  0.42111111111111121         -1.4349564830644368E-013
  0.43111111111111122         -2.1275773569133516E-013
  0.44111111111111123         -2.3158441852556833E-013
  0.45111111111111124         -1.6205147033293565E-013
  0.46111111111111125          1.7029782057730210E-014
  0.47111111111111126          2.9240851276771118E-013
  0.48111111111111127          6.0407728081843248E-013
  0.49111111111111128          8.4594115566660744E-013
  0.50111111111111128          8.8533824368908220E-013
  0.51111111111111129          6.0244691180155741E-013
  0.52111111111111108         -5.6713023220775899E-014
  0.53111111111111109         -1.0280159969816571E-012
  0.54111111111111110         -2.0980096999967390E-012
  0.55111111111111111         -2.9148437136194971E-012
  0.56111111111111112         -3.0557193060609666E-012
  0.57111111111111112         -2.1504393318133586E-012
  0.58111111111111113         -4.0020602527475815E-014
  0.59111111111111114          3.0719302969439699E-012
  0.60111111111111115          6.5319772160621348E-012
  0.61111111111111116          9.2709121629619418E-012
  0.62111111111111117          9.9967577618653714E-012
  0.63111111111111118          7.5445214312019893E-012
  0.64111111111111119          1.3264857962047572E-012
  0.65111111111111120         -8.2283485580703086E-012
  0.66111111111111120         -1.9395374195596560E-011
  0.67111111111111121         -2.9188880479313895E-011
  0.68111111111111122         -3.3817705580307944E-011
  0.69111111111111123         -2.9574526855258298E-011
  0.70111111111111124         -1.4039356482919985E-011
  0.71111111111111125          1.2661633894128776E-011
  0.72111111111111126          4.6907658313166678E-011
  0.73111111111111127          8.1341974822457530E-011
  0.74111111111111128          1.0565782970761717E-010
  0.75111111111111128          1.0853707516078615E-010
  0.76111111111111129          8.0575247862757493E-011
  0.77111111111111130          1.7694637421961090E-011
  0.78111111111111109         -7.5745729133380735E-011
  0.79111111111111110         -1.8509285770740291E-010
  0.80111111111111111         -2.8569083210250312E-010
  0.81111111111111112         -3.4590549868873666E-010
  0.82111111111111112         -3.3292046897059890E-010
  0.83111111111111113         -2.2063727234122865E-010
  0.84111111111111114          1.6985527567792147E-012
  0.85111111111111115          3.2206631805919983E-010
  0.86111111111111116          7.0154720921422609E-010
  0.87111111111111117          1.0753320456302617E-009
  0.88111111111111118          1.3598667747416471E-009
  0.89111111111111119          1.4658582125903763E-009
  0.90111111111111120          1.3152973155072800E-009
  0.91111111111111120          8.5904383606560941E-010
  0.92111111111111121          9.0159095467168271E-011
  0.93111111111111122         -9.5265539901134844E-010
  0.94111111111111123         -2.1973773911554417E-009
  0.95111111111111124         -3.5721277047429112E-009
  0.96111111111111125         -5.0640984738947736E-009
  0.97111111111111126         -6.8071823733362180E-009
  0.98111111111111127         -9.2010647989582139E-009
  0.99111111111111128         -1.3064720860711532E-008
   1.0011111111111113         -1.9830157071965004E-008
   1.0111111111111113         -3.1786626664143114E-008
   1.0211111111111113         -5.2394273808431535E-008
   1.0311111111111111         -8.6698292989240144E-008
   1.0411111111111111         -1.4189105002060387E-007
   1.0511111111111111         -2.2809017252711783E-007
   1.0611111111111111         -3.5942989029535966E-007
   1.0711111111111111         -5.5559360134793678E-007
   1.0811111111111111         -8.4395378507906571E-007
   1.0911111111111111         -1.2625337149074767E-006
   1.1011111111111112         -1.8640571397554595E-006
   1.1111111111111112         -2.7214130113861756E-006
   1.1211111111111114         -3.9349329199467320E-006
   1.1311111111111112         -5.6419735301460605E-006
   1.1411111111111114         -8.0293502833228558E-006
   1.1511111111111112         -1.1349327905918472E-005
   1.1611111111111110         -1.5939922377583571E-005
   1.1711111111111112         -2.2250429537962191E-005
   1.1811111111111110         -3.0873208743287250E-005
   1.1911111111111112         -4.2582880269037560E-005
   1.2011111111111110         -5.8384135627420619E-005
   1.2111111111111112         -7.9569523222744465E-005
   1.2211111111111110         -1.0778834985103458E-004
   1.2311111111111113         -1.4512822963297367E-004
   1.2411111111111111         -1.9420996250119060E-004
   1.2511111111111113         -2.5829655351117253E-004
   1.2611111111111111         -3.4141633659601212E-004
   1.2711111111111113         -4.4849910773336887E-004
   1.2811111111111111         -5.8552384143695235E-004
   1.2911111111111113         -7.5967388693243265E-004
   1.3011111111111111         -9.7949535120278597E-004
   1.3111111111111113         -1.2550494866445661E-003
   1.3211111111111111         -1.5980519820004702E-003
   1.3311111111111114         -2.0219853613525629E-003
   1.3411111111111111         -2.5421699974685907E-003
   1.3511111111111114         -3.1757787801325321E-003
   1.3611111111111112         -3.9417706429958344E-003
   1.3711111111111114         -4.8607299104332924E-003
   1.3811111111111112         -5.9545822441577911E-003
   1.3911111111111114         -7.2461743839085102E-003
   1.4011111111111112         -8.7586911395192146E-003
   1.4111111111111114         -1.0514899156987667E-002
   1.4211111111111112         -1.2536206282675266E-002
   1.4311111111111110         -1.4841529540717602E-002
   1.4411111111111112         -1.7445985227823257E-002
   1.4511111111111110         -2.0359413698315620E-002
   1.4611111111111112         -2.3584773764014244E-002
   1.4711111111111110         -2.7116449549794197E-002
   1.4811111111111113         -3.0938534066081047E-002
   1.4911111111111111         -3.5023160278797150E-002
   1.5011111111111113         -3.9328962564468384E-002
   1.5111111111111111         -4.3799791485071182E-002
   1.5211111111111113         -4.8363737761974335E-002
   1.5311111111111111         -5.2932649850845337E-002
   1.5411111111111113         -5.7402182370424271E-002
   1.5511111111111111         -6.1652511358261108E-002
   1.5611111111111113         -6.5549798309803009E-002
   1.5711111111111111         -6.8948447704315186E-002
   1.5811111111111114         -7.1694143116474152E-002
   1.5911111111111111         -7.3627762496471405E-002
   1.6011111111111114         -7.4590049684047699E-002
   1.6111111111111112         -7.4426919221878052E-002
   1.6211111111111114         -7.2995312511920929E-002
   1.6311111111111112         -7.0169389247894287E-002
   1.6411111111111114         -6.5846778452396393E-002
   1.6511111111111112         -5.9954702854156494E-002
   1.6611111111111114         -5.2455656230449677E-002
   1.6711111111111112         -4.3352343142032623E-002
   1.6811111111111110         -3.2691597938537598E-002
   1.6911111111111112         -2.0566968247294426E-002
   1.7011111111111110         -7.1197845973074436E-003
   1.7111111111111112          7.4615101329982281E-003
   1.7211111111111110          2.2943856194615364E-002
   1.7311111111111113          3.9053920656442642E-002
   1.7411111111111111          5.5484250187873840E-002
   1.7511111111111113          7.1901082992553711E-002
   1.7611111111111111          8.7953589856624603E-002
   1.7711111111111113         0.10328423231840134     
   1.7811111111111111         0.11753986775875092     
   1.7911111111111113         0.13038311898708344     
   1.8011111111111111         0.14150360226631165     
   1.8111111111111113         0.15062849223613739     
   1.8211111111111111         0.15753191709518433     
   1.8311111111111114         0.16204285621643066     
   1.8411111111111111         0.16405116021633148     
   1.8511111111111114         0.16351135075092316     
   1.8611111111111112         0.16044408082962036     
   1.8711111111111114         0.15493522584438324     
   1.8811111111111112         0.14713262021541595     
   1.8911111111111114         0.13724052906036377     
   1.9011111111111112         0.12551216781139374     
   1.9111111111111114         0.11224064230918884     
   1.9211111111111112          9.7748748958110809E-002
   1.9311111111111110          8.2377992570400238E-002
   1.9411111111111112          6.6477403044700623E-002
   1.9511111111111110          5.0392538309097290E-002
   1.9611111111111112          3.4455172717571259E-002
   1.9711111111111110          1.8974015489220619E-002
   1.9811111111111113          4.2268154211342335E-003
   1.9911111111111111         -9.5459241420030594E-003
   2.0011111111111113         -2.2145455703139305E-002
   2.0111111111111111         -3.3417478203773499E-002
   2.0211111111111113         -4.3253071606159210E-002
   2.0311111111111111         -5.1587935537099838E-002
   2.0411111111111113         -5.8400169014930725E-002
   2.0511111111111111         -6.3706777989864349E-002
   2.0611111111111113         -6.7559190094470978E-002
   2.0711111111111111         -7.0038095116615295E-002
   2.0811111111111114         -7.1247808635234833E-002
   2.0911111111111111         -7.1310535073280334E-002
   2.1011111111111114         -7.0360705256462097E-002
   2.1111111111111112         -6.8539664149284363E-002
   2.1211111111111114         -6.5990798175334930E-002
   2.1311111111111112         -6.2855303287506104E-002
   2.1411111111111114         -5.9268604964017868E-002
   2.1511111111111112         -5.5357482284307480E-002
   2.1611111111111114         -5.1237907260656357E-002
   2.1711111111111112         -4.7013554722070694E-002
   2.1811111111111114         -4.2774934321641922E-002
   2.1911111111111112         -3.8599088788032532E-002
   2.2011111111111110         -3.4549754112958908E-002
   2.2111111111111112         -3.0677890405058861E-002
   2.2211111111111110         -2.7022520080208778E-002
   2.2311111111111113         -2.3611761629581451E-002
   2.2411111111111111         -2.0464008674025536E-002
   2.2511111111111113         -1.7589196562767029E-002
   2.2611111111111111         -1.4990091323852539E-002
   2.2711111111111113         -1.2663546018302441E-002
   2.2811111111111111         -1.0601703077554703E-002
   2.2911111111111113         -8.7930802255868912E-003
   2.3011111111111111         -7.2235306724905968E-003
   2.3111111111111113         -5.8770524337887764E-003
   2.3211111111111111         -4.7364612109959126E-003
   2.3311111111111114         -3.7839189171791077E-003
   2.3411111111111111         -3.0013415962457657E-003
   2.3511111111111114         -2.3706993088126183E-003
   2.3611111111111112         -1.8742263782769442E-003
   2.3711111111111114         -1.4945698203518987E-003
   2.3811111111111112         -1.2149020330980420E-003
   2.3911111111111114         -1.0190262692049146E-003
   2.4011111111111112         -8.9150160783901811E-004
   2.4111111111111114         -8.1779871834442019E-004
   2.4211111111111112         -7.8448868589475751E-004
   2.4311111111111114         -7.7945174416527152E-004
   2.4411111111111112         -7.9208612442016602E-004
   2.4511111111111110         -8.1349245738238096E-004
   2.4611111111111112         -8.3661009557545185E-004
   2.4711111111111110         -8.5628632223233581E-004
   2.4811111111111113         -8.6926139192655683E-004
   2.4911111111111111         -8.7405921658501029E-004
   2.5011111111111113         -8.7077898206189275E-004
   2.5111111111111111         -8.6079281754791737E-004
   2.5211111111111113         -8.4636744577437639E-004
   2.5311111111111111         -8.3023792831227183E-004
   2.5411111111111113         -8.1517180660739541E-004
   2.5511111111111111         -8.0356310354545712E-004
   2.5611111111111113         -7.9709349665790796E-004
   2.5711111111111111         -7.9648656537756324E-004
   2.5811111111111114         -8.0137327313423157E-004
   2.5911111111111111         -8.1027566920965910E-004
   2.6011111111111114         -8.2070630742236972E-004
   2.6111111111111112         -8.2937342813238502E-004
   2.6211111111111114         -8.3247356815263629E-004
   2.6311111111111112         -8.2604406634345651E-004
   2.6411111111111114         -8.0634228652343154E-004
   2.6511111111111112         -7.7021343167871237E-004
   2.6611111111111114         -7.1541173383593559E-004
   2.6711111111111112         -6.4084539189934731E-004
   2.6811111111111114         -5.4672552505508065E-004
   2.6911111111111112         -4.3461011955514550E-004
   2.7011111111111110         -3.0734256142750382E-004
   2.7111111111111112         -1.6889232210814953E-004
   2.7211111111111110         -2.4110995582304895E-005
   2.7311111111111113          1.2157687160652131E-004
   2.7411111111111111          2.6252327370457351E-004
   2.7511111111111113          3.9321757503785193E-004
   2.7611111111111111          5.0862855277955532E-004
   2.7711111111111113          6.0450111050158739E-004
   2.7811111111111111          6.7758798832073808E-004
   2.7911111111111113          7.2580442065373063E-004
   2.8011111111111111          7.4830395169556141E-004
   2.8111111111111113          7.4547715485095978E-004
   2.8211111111111111          7.1888044476509094E-004
   2.8311111111111114          6.7110272357240319E-004
   2.8411111111111111          6.0558144468814135E-004
   2.8511111111111114          5.2638113265857100E-004
   2.8611111111111112          4.3795065721496940E-004
   2.8711111111111114          3.4487558878026903E-004
   2.8811111111111112          2.5164018734358251E-004
   2.8911111111111114          1.6241049161180854E-004
   2.9011111111111112          8.0846562923397869E-005
   2.9111111111111114          9.9493499874370173E-006
   2.9211111111111112         -4.8051482735900208E-005
   2.9311111111111114         -9.1762100055348128E-005
   2.9411111111111112         -1.2063498434145004E-004
   2.9511111111111110         -1.3492217112798244E-004
   2.9611111111111112         -1.3557469355873764E-004
   2.9711111111111110         -1.2409886403474957E-004
   2.9811111111111113         -1.0238635150017217E-004
   2.9911111111111111         -7.2537615778855979E-005
   3.0011111111111113         -3.6697219911729917E-005
   3.0111111111111111          3.0841786156088347E-006
   3.0211111111111113          4.4950396841159090E-005
   3.0311111111111111          8.7296284618787467E-005
   3.0411111111111113          1.2877777044195682E-004
   3.0511111111111111          1.6827823128551245E-004
   3.0611111111111113          2.0484132983256131E-004
   3.0711111111111111          2.3758836323395371E-004
   3.0811111111111114          2.6564369909465313E-004
   3.0911111111111111          2.8809261857531965E-004
   3.1011111111111114          3.0398913077078760E-004
   3.1111111111111112          3.1241984106600285E-004
   3.1211111111111109          3.1261536059901118E-004
   3.1311111111111116          3.0408991733565927E-004
   3.1411111111111114          2.8678361559286714E-004
   3.1511111111111112          2.6118144160136580E-004
   3.1611111111111110          2.2838776931166649E-004
   3.1711111111111117          1.9014017016161233E-004
   3.1811111111111114          1.4875280612614006E-004
   3.1911111111111112          1.0698683036025614E-004
   3.2011111111111110          6.7854773078579456E-005
   3.2111111111111108          3.4378124837530777E-005
   3.2211111111111115          9.3291228040470742E-006
   3.2311111111111113         -5.0030607781081926E-006
   3.2411111111111111         -6.9810689637961332E-006
   3.2511111111111108          4.3089912651339546E-006
   3.2611111111111115          2.9098284358042292E-005
   3.2711111111111113          6.7084438342135400E-005
   3.2811111111111111          1.1766814714064822E-004
   3.2911111111111109          1.8024572636932135E-004
   3.3011111111111116          2.5452172849327326E-004
   3.3111111111111113          3.4080579644069076E-004
   3.3211111111111111          4.4025923125445843E-004
   3.3311111111111109          5.5505929049104452E-004
   3.3411111111111116          6.8845285568386316E-004
   3.3511111111111114          8.4468181012198329E-004
   3.3611111111111112          1.0287752375006676E-003
   3.3711111111111109          1.2462252052500844E-003
   3.3811111111111116          1.5025775646790862E-003
   3.3911111111111114          1.8029806669801474E-003
   3.4011111111111112          2.1517341956496239E-003
   3.4111111111111110          2.5518753100186586E-003
   3.4211111111111117          3.0048212502151728E-003
   3.4311111111111114          3.5100793465971947E-003
   3.4411111111111112          4.0650297887623310E-003
   3.4511111111111110          4.6647791750729084E-003
   3.4611111111111117          5.3020878694951534E-003
   3.4711111111111115          5.9673627838492393E-003
   3.4811111111111113          6.6487127915024757E-003
   3.4911111111111111          7.3320502415299416E-003
   3.5011111111111108          8.0012278631329536E-003
   3.5111111111111115          8.6382022127509117E-003
   3.5211111111111113          9.2232404276728630E-003
   3.5311111111111111          9.7351856529712677E-003
   3.5411111111111109          1.0151812806725502E-002
   3.5511111111111116          1.0450293309986591E-002
   3.5611111111111113          1.0607790201902390E-002
   3.5711111111111111          1.0602177120745182E-002
   3.5811111111111109          1.0412848554551601E-002
   3.5911111111111116          1.0021603666245937E-002
   3.6011111111111114          9.4135534018278122E-003
   3.6111111111111112          8.5780220106244087E-003
   3.6211111111111109          7.5093894265592098E-003
   3.6311111111111116          6.2078344635665417E-003
   3.6411111111111114          4.6799215488135815E-003
   3.6511111111111112          2.9389816336333752E-003
   3.6611111111111110          1.0052471188828349E-003
   3.6711111111111117         -1.0942753870040178E-003
   3.6811111111111114         -3.3261948265135288E-003
   3.6911111111111112         -5.6513673625886440E-003
   3.7011111111111110         -8.0257430672645569E-003
   3.7111111111111117         -1.0401400737464428E-002
   3.7211111111111115         -1.2727751396596432E-002
   3.7311111111111113         -1.4952897094190121E-002
   3.7411111111111111         -1.7025114968419075E-002
   3.7511111111111108         -1.8894433975219727E-002
   3.7611111111111115         -2.0514268428087234E-002
   3.7711111111111113         -2.1843012422323227E-002
   3.7811111111111111         -2.2845577448606491E-002
   3.7911111111111109         -2.3494774475693703E-002
   3.8011111111111116         -2.3772479966282845E-002
   3.8111111111111113         -2.3670542985200882E-002
   3.8211111111111111         -2.3191345855593681E-002
   3.8311111111111109         -2.2347969934344292E-002
   3.8411111111111116         -2.1163901314139366E-002
   3.8511111111111114         -1.9672270864248276E-002
   3.8611111111111112         -1.7914619296789169E-002
   3.8711111111111109         -1.5939261764287949E-002
   3.8811111111111116         -1.3799343258142471E-002
   3.8911111111111114         -1.1550714261829853E-002
   3.9011111111111112         -9.2497291043400764E-003
   3.9111111111111110         -6.9511178880929947E-003
   3.9211111111111117         -4.7060186043381691E-003
   3.9311111111111114         -2.5602835230529308E-003
   3.9411111111111112         -5.5313907796517015E-004
   3.9511111111111110          1.2837435351684690E-003
   3.9611111111111117          2.9267359059303999E-003
   3.9711111111111115          4.3603093363344669E-003
   3.9811111111111113          5.5767088197171688E-003
   3.9911111111111111          6.5753203816711903E-003
   4.0011111111111113          7.3618195019662380E-003
   4.0111111111111111          7.9471841454505920E-003
   4.0211111111111109          8.3466321229934692E-003
   4.0311111111111106          8.5785286501049995E-003
   4.0411111111111104          8.6633143946528435E-003
   4.0511111111111120          8.6224758997559547E-003
   4.0611111111111118          8.4775956347584724E-003
   4.0711111111111116          8.2495240494608879E-003
   4.0811111111111114          7.9576950520277023E-003
   4.0911111111111111          7.6196077279746532E-003
   4.1011111111111109          7.2504668496549129E-003
   4.1111111111111107          6.8629900924861431E-003
   4.1211111111111105          6.4673712477087975E-003
   4.1311111111111121          6.0713887214660645E-003
   4.1411111111111119          5.6806495413184166E-003
   4.1511111111111116          5.2989395335316658E-003
   4.1611111111111114          4.9286275170743465E-003
   4.1711111111111112          4.5710494741797447E-003
   4.1811111111111110          4.2267865501344204E-003
   4.1911111111111108          3.8957630749791861E-003
   4.2011111111111106          3.5771024413406849E-003
   4.2111111111111121          3.2687222119420767E-003
   4.2211111111111119          2.9666824266314507E-003
   4.2311111111111117          2.6643273886293173E-003
   4.2411111111111115          2.3512810003012419E-003
   4.2511111111111113          2.0123627036809921E-003
   4.2611111111111111          1.6264945734292269E-003
   4.2711111111111109          1.1656736023724079E-003
   4.2811111111111106          5.9407483786344528E-004
   4.2911111111111104         -1.3265757297631353E-004
   4.3011111111111120         -1.0679019615054131E-003
   4.3111111111111118         -2.2743344306945801E-003
   4.3211111111111116         -3.8240219000726938E-003
   4.3311111111111114         -5.7983868755400181E-003
   4.3411111111111111         -8.2881022244691849E-003
   4.3511111111111109         -1.1392952874302864E-002
   4.3611111111111107         -1.5221687965095043E-002
   4.3711111111111105         -1.9891839474439621E-002
   4.3811111111111121         -2.5529483333230019E-002
   4.3911111111111119         -3.2268885523080826E-002
   4.4011111111111116         -4.0251985192298889E-002
   4.4111111111111114         -4.9627661705017090E-002
   4.4211111111111112         -6.0550689697265625E-002
   4.4311111111111110         -7.3180370032787323E-002
   4.4411111111111108         -8.7678663432598114E-002
   4.4511111111111106        -0.10420779883861542     
   4.4611111111111121        -0.12292727082967758     
   4.4711111111111119        -0.14399009943008423     
   4.4811111111111117        -0.16753840446472168     
   4.4911111111111115        -0.19369810819625854     
   4.5011111111111113        -0.22257290780544281     
   4.5111111111111111        -0.25423735380172729     
   4.5211111111111109        -0.28872910141944885     
   4.5311111111111106        -0.32604047656059265     
   4.5411111111111104        -0.36610946059226990     
   4.5511111111111120        -0.40881013870239258     