 -0.88888888888888884          0.0000000000000000     
 -0.87888888888888883          0.0000000000000000     
 -0.86888888888888882          0.0000000000000000     
 -0.85888888888888881          0.0000000000000000     
 -0.84888888888888880         -8.8592691518226756E-036
 -0.83888888888888880         -8.7875503645910552E-034
 -0.82888888888888879         -2.1088194680587916E-031
 -0.81888888888888878         -8.0063089505692521E-031
 -0.80888888888888888         -2.3115455059202475E-030
 -0.79888888888888887         -1.7453720560783327E-029
 -0.78888888888888886         -9.7075632178363649E-029
 -0.77888888888888885         -3.0489278986385237E-028
 -0.76888888888888884         -5.2354879238686080E-028
 -0.75888888888888884         -1.9101967819302935E-028
 -0.74888888888888883          1.4159777840735115E-027
 -0.73888888888888882          3.6950899616733285E-027
 -0.72888888888888881          2.9388885912632465E-027
 -0.71888888888888880         -6.3412691718267920E-027
 -0.70888888888888890         -2.4181125891062692E-026
 -0.69888888888888889         -3.6564904737279195E-026
 -0.68888888888888888         -1.9143820684406900E-026
 -0.67888888888888888          3.8239856735777619E-026
 -0.66888888888888887          1.0778986780773754E-025
 -0.65888888888888886          1.5259473901181713E-025
 -0.64888888888888885          2.2685546687567135E-025
 -0.63888888888888884          5.3161070162288473E-025
 -0.62888888888888883          1.1701540627464196E-024
 -0.61888888888888882          1.4620008460267588E-024
 -0.60888888888888881         -7.3458480975147738E-025
 -0.59888888888888880         -8.3962300006671661E-024
 -0.58888888888888880         -2.1939635412938494E-023
 -0.57888888888888879         -3.3332642285178985E-023
 -0.56888888888888878         -2.1897555994532195E-023
 -0.55888888888888877          4.0080097773670871E-023
 -0.54888888888888876          1.6457627674568912E-022
 -0.53888888888888875          3.1057322572096606E-022
 -0.52888888888888885          3.5390516591813899E-022
 -0.51888888888888884          1.0365782493720449E-022
 -0.50888888888888884         -5.9686064272267047E-022
 -0.49888888888888883         -1.6844857657272050E-021
 -0.48888888888888882         -2.6803178221098721E-021
 -0.47888888888888881         -2.6385086485170399E-021
 -0.46888888888888886         -4.2122001749051766E-022
 -0.45888888888888885          4.6103129544906073E-021
 -0.44888888888888884          1.1632256444595362E-020
 -0.43888888888888883          1.7580639860847761E-020
 -0.42888888888888882          1.7255711360892141E-020
 -0.41888888888888881          4.9520867775945424E-021
 -0.40888888888888886         -2.2245718795796628E-020
 -0.39888888888888885         -6.0304452260139151E-020
 -0.38888888888888884         -9.5117957464218678E-020
 -0.37888888888888883         -1.0302762650251265E-019
 -0.36888888888888882         -5.7286348085920183E-020
 -0.35888888888888881          5.9027285394357276E-020
 -0.34888888888888880          2.3635918276696740E-019
 -0.33888888888888880          4.2482613318136889E-019
 -0.32888888888888879          5.3245062853003747E-019
 -0.31888888888888878          4.4434358898152829E-019
 -0.30888888888888888          6.6283139244261975E-020
 -0.29888888888888887         -6.1445566009731952E-019
 -0.28888888888888886         -1.4713795678274344E-018
 -0.27888888888888885         -2.2147186010581592E-018
 -0.26888888888888884         -2.4314595670866005E-018
 -0.25888888888888884         -1.7039387087097273E-018
 -0.24888888888888883          2.0967592594374648E-019
 -0.23888888888888882          3.1862784196534894E-018
 -0.22888888888888881          6.6180636315224111E-018
 -0.21888888888888880          9.4352182862932466E-018
 -0.20888888888888879          1.0302682594677607E-017
 -0.19888888888888878          7.9570895450528389E-018
 -0.18888888888888877          1.5926162248844580E-018
 -0.17888888888888888         -8.8067926313244604E-018
 -0.16888888888888887         -2.2237993071047050E-017
 -0.15888888888888886         -3.6508582481983338E-017
 -0.14888888888888885         -4.8028108141911165E-017
 -0.13888888888888884         -5.1546365367450308E-017
 -0.12888888888888883         -4.0104889161400535E-017
 -0.11888888888888882         -5.8713813410509001E-018
 -0.10888888888888881          5.7208161888747116E-017
  -9.8888888888888804E-002     1.4828911839863450E-016
  -8.8888888888888795E-002     2.5258911592883381E-016
  -7.8888888888888786E-002     3.3508326931848582E-016
  -6.8888888888888777E-002     3.3987702581369194E-016
  -5.8888888888888768E-002     2.0116904118858565E-016
  -4.8888888888888871E-002    -1.3046807458399605E-016
  -3.8888888888888862E-002    -6.4922433723037872E-016
  -2.8888888888888853E-002    -1.2551390328346978E-015
  -1.8888888888888844E-002    -1.7369589018037296E-015
  -8.8888888888888351E-003    -1.8011660109088553E-015
   1.1111111111111738E-003    -1.1614404599676639E-015
   1.1111111111111183E-002     3.2185282644061047E-016
   2.1111111111111192E-002     2.4957777086453492E-015
   3.1111111111111200E-002     4.8333842963686931E-015
   4.1111111111111209E-002     6.4899855001037624E-015
   5.1111111111111218E-002     6.5340663652282971E-015
   6.1111111111111227E-002     4.3160822172391786E-015
   7.1111111111111125E-002    -1.4923587624053819E-016
   8.1111111111111134E-002    -5.9710287421117867E-015
   9.1111111111111143E-002    -1.1511477602849270E-014
  0.10111111111111115         -1.4915730122918615E-014
  0.11111111111111116         -1.4912438552885585E-014
  0.12111111111111117         -1.1554718634806602E-014
  0.13111111111111118         -6.4647227424519029E-015
  0.14111111111111119         -2.2300571203445708E-015
  0.15111111111111120         -9.1683587364634316E-016
  0.16111111111111120         -2.1499843429835432E-015
  0.17111111111111121         -1.6902515992679962E-015
  0.18111111111111122          8.3411222197358852E-015
  0.19111111111111123          3.6710939870692252E-014
  0.20111111111111124          8.7784475326889433E-014
  0.21111111111111125          1.5501396824144087E-013
  0.22111111111111126          2.1589448165413444E-013
  0.23111111111111127          2.3186685319150080E-013
  0.24111111111111128          1.5620397499343380E-013
  0.25111111111111128         -4.9155419182744450E-014
  0.26111111111111129         -3.9041851891165325E-013
  0.27111111111111108         -8.1917610715576128E-013
  0.28111111111111109         -1.2201490902710721E-012
  0.29111111111111110         -1.4201436250929622E-012
  0.30111111111111111         -1.2253726679178900E-012
  0.31111111111111112         -4.8620320009656881E-013
  0.32111111111111112          8.2297997626781805E-013
  0.33111111111111113          2.5326312227957892E-012
  0.34111111111111114          4.2467049841954374E-012
  0.35111111111111115          5.3806221630980922E-012
  0.36111111111111116          5.2846754750035529E-012
  0.37111111111111117          3.4442219042085664E-012
  0.38111111111111118         -2.8345479175656552E-013
  0.39111111111111119         -5.4649314587540410E-012
  0.40111111111111120         -1.1003972906487025E-011
  0.41111111111111120         -1.5248685994451172E-011
  0.42111111111111121         -1.6330352001214798E-011
  0.43111111111111122         -1.2706248379845686E-011
  0.44111111111111123         -3.7992378340567790E-012
  0.45111111111111124          9.4445701259715520E-012
  0.46111111111111125          2.4295393821760491E-011
  0.47111111111111126          3.6470011038902683E-011
  0.48111111111111127          4.0953573865465387E-011
  0.49111111111111128          3.3358017736961898E-011
  0.50111111111111128          1.1572317756836092E-011
  0.51111111111111129         -2.2714240210941483E-011
  0.52111111111111108         -6.3133845373819497E-011
  0.53111111111111109         -9.8896564548756061E-011
  0.54111111111111110         -1.1648496056615443E-010
  0.55111111111111111         -1.0275681694427163E-010
  0.56111111111111112         -4.9001379343049933E-011
  0.57111111111111112          4.4923505887473070E-011
  0.58111111111111113          1.6753511078437811E-010
  0.59111111111111114          2.9495719755523453E-010
  0.60111111111111115          3.9337055834920420E-010
  0.61111111111111116          4.2500994390515245E-010
  0.62111111111111117          3.5718228375003491E-010
  0.63111111111111118          1.7283832698389290E-010
  0.64111111111111119         -1.1958790901989147E-010
  0.65111111111111120         -4.7981785211703709E-010
  0.66111111111111120         -8.3551460194897231E-010
  0.67111111111111121         -1.0901963776177581E-009
  0.68111111111111122         -1.1399906574283136E-009
  0.69111111111111123         -8.9835761052370344E-010
  0.70111111111111124         -3.2634794866481798E-010
  0.71111111111111125          5.3524012999517367E-010
  0.72111111111111126          1.5357266569537842E-009
  0.73111111111111127          2.3895718737065863E-009
  0.74111111111111128          2.6575013301055606E-009
  0.75111111111111128          1.7311281297338610E-009
  0.76111111111111129         -1.1864325077937110E-009
  0.77111111111111130         -7.1171557536331420E-009
  0.78111111111111109         -1.7382005168542491E-008
  0.79111111111111110         -3.3739212312866584E-008
  0.80111111111111111         -5.8622148912945704E-008
  0.81111111111111112         -9.5519531839727279E-008
  0.82111111111111112         -1.4955068650124304E-007
  0.83111111111111113         -2.2829999579698779E-007
  0.84111111111111114         -3.4298767559448606E-007
  0.85111111111111115         -5.1007685897275223E-007
  0.86111111111111116         -7.5343496064306237E-007
  0.87111111111111117         -1.1072095276176697E-006
  0.88111111111111118         -1.6196123624467873E-006
  0.89111111111111119         -2.3578743366670096E-006
  0.90111111111111120         -3.4146914913435467E-006
  0.91111111111111120         -4.9165887503477279E-006
  0.92111111111111121         -7.0347118708014023E-006
  0.93111111111111122         -9.9987018984393217E-006
  0.94111111111111123         -1.4114437362877652E-005
  0.95111111111111124         -1.9786557459156029E-005
  0.96111111111111125         -2.7546870114747435E-005
  0.97111111111111126         -3.8089823647169396E-005
  0.98111111111111127         -5.2316325309220701E-005
  0.99111111111111128         -7.1387345087714493E-005
   1.0011111111111113         -9.6788622613530606E-005
   1.0111111111111113         -1.3040764315519482E-004
   1.0211111111111113         -1.7462401592638344E-004
   1.0311111111111111         -2.3241367307491601E-004
   1.0411111111111111         -3.0746709671802819E-004
   1.0511111111111111         -4.0432097739540040E-004
   1.0611111111111111         -5.2850082283839583E-004
   1.0711111111111111         -6.8667222512885928E-004
   1.0811111111111111         -8.8679586770012975E-004
   1.0911111111111111         -1.1382796801626682E-003
   1.1011111111111112         -1.4521193224936724E-003
   1.1111111111111112         -1.8410182092338800E-003
   1.1211111111111114         -2.3194705136120319E-003
   1.1311111111111112         -2.9037946369498968E-003
   1.1411111111111114         -3.6120992153882980E-003
   1.1511111111111112         -4.4641625136137009E-003
   1.1611111111111110         -5.4812030866742134E-003
   1.1711111111111112         -6.6855228506028652E-003
   1.1811111111111110         -8.1000048667192459E-003
   1.1911111111111112         -9.7474446520209312E-003
   1.2011111111111110         -1.1649704538285732E-002
   1.2111111111111112         -1.3826685026288033E-002
   1.2211111111111110         -1.6295114532113075E-002
   1.2311111111111113         -1.9067160785198212E-002
   1.2411111111111111         -2.2148905321955681E-002
   1.2511111111111113         -2.5538695976138115E-002
   1.2611111111111111         -2.9225444421172142E-002
   1.2711111111111113         -3.3186934888362885E-002
   1.2811111111111111         -3.7388227880001068E-002
   1.2911111111111113         -4.1780218482017517E-002
   1.3011111111111111         -4.6298518776893616E-002
   1.3111111111111113         -5.0862718373537064E-002
   1.3211111111111111         -5.5376145988702774E-002
   1.3311111111111114         -5.9726238250732422E-002
   1.3411111111111111         -6.3785649836063385E-002
   1.3511111111111114         -6.7414104938507080E-002
   1.3611111111111112         -7.0461086928844452E-002
   1.3711111111111114         -7.2769366204738617E-002
   1.3811111111111112         -7.4179299175739288E-002
   1.3911111111111114         -7.4533872306346893E-002
   1.4011111111111112         -7.3684364557266235E-002
   1.4111111111111114         -7.1496404707431793E-002
   1.4211111111111112         -6.7856259644031525E-002
   1.4311111111111110         -6.2677115201950073E-002
   1.4411111111111112         -5.5904965847730637E-002
   1.4511111111111110         -4.7523938119411469E-002
   1.4611111111111112         -3.7560712546110153E-002
   1.4711111111111110         -2.6087703183293343E-002
   1.4811111111111113         -1.3224833644926548E-002
   1.4911111111111111          8.6037948494777083E-004
   1.5011111111111113          1.5954513102769852E-002
   1.5111111111111111          3.1801797449588776E-002
   1.5211111111111113          4.8109516501426697E-002
   1.5311111111111111          6.4555123448371887E-002
   1.5411111111111113          8.0794885754585266E-002
   1.5511111111111111          9.6473813056945801E-002
   1.5611111111111113         0.11123643070459366     
   1.5711111111111111         0.12473801523447037     
   1.5811111111111114         0.13665588200092316     
   1.5911111111111111         0.14670021831989288     
   1.6011111111111114         0.15462392568588257     
   1.6111111111111112         0.16023117303848267     
   1.6211111111111114         0.16338418424129486     
   1.6311111111111112         0.16400793194770813     
   1.6411111111111114         0.16209271550178528     
   1.6511111111111112         0.15769425034523010     
   1.6611111111111114         0.15093146264553070     
   1.6711111111111112         0.14198200404644012     
   1.6811111111111110         0.13107575476169586     
   1.6911111111111112         0.11848658323287964     
   1.7011111111111110         0.10452278703451157     
   1.7111111111111112          8.9516617357730865E-002
   1.7211111111111110          7.3813311755657196E-002
   1.7311111111111113          5.7760108262300491E-002
   1.7411111111111111          4.1695713996887207E-002
   1.7511111111111113          2.5940608233213425E-002
   1.7611111111111111          1.0788521729409695E-002
   1.7711111111111113         -3.5006077960133553E-003
   1.7811111111111111         -1.6706051304936409E-002
   1.7911111111111113         -2.8649959713220596E-002
   1.8011111111111111         -3.9199300110340118E-002
   1.8111111111111113         -4.8266086727380753E-002
   1.8211111111111111         -5.5806070566177368E-002
   1.8311111111111114         -6.1816055327653885E-002
   1.8411111111111111         -6.6330075263977051E-002
   1.8511111111111114         -6.9414682686328888E-002
   1.8611111111111112         -7.1163654327392578E-002
   1.8711111111111114         -7.1692340075969696E-002
   1.8811111111111112         -7.1131922304630280E-002
   1.8911111111111114         -6.9623880088329315E-002
   1.9011111111111112         -6.7314751446247101E-002
   1.9111111111111114         -6.4351357519626617E-002
   1.9211111111111112         -6.0876652598381042E-002
   1.9311111111111110         -5.7026218622922897E-002
   1.9411111111111112         -5.2925482392311096E-002
   1.9511111111111110         -4.8687633126974106E-002
   1.9611111111111112         -4.4412229210138321E-002
   1.9711111111111110         -4.0184471756219864E-002
   1.9811111111111113         -3.6075022071599960E-002
   1.9911111111111111         -3.2140310853719711E-002
   2.0011111111111113         -2.8423240408301353E-002
   2.0111111111111111         -2.4954220280051231E-002
   2.0211111111111113         -2.1752435714006424E-002
   2.0311111111111111         -1.8827293068170547E-002
   2.0411111111111113         -1.6179962083697319E-002
   2.0511111111111111         -1.3804925605654716E-002
   2.0611111111111113         -1.1691490188241005E-002
   2.0711111111111111         -9.8251914605498314E-003
   2.0811111111111114         -8.1890569999814034E-003
   2.0911111111111111         -6.7647183313965797E-003
   2.1011111111111114         -5.5333515629172325E-003
   2.1111111111111112         -4.4764452613890171E-003
   2.1211111111111114         -3.5763834603130817E-003
   2.1311111111111112         -2.8168447315692902E-003
   2.1411111111111114         -2.1830208133906126E-003
   2.1511111111111112         -1.6616763314232230E-003
   2.1611111111111114         -1.2410799972712994E-003
   2.1711111111111112         -9.1084279119968414E-004
   2.1811111111111114         -6.6169525962322950E-004
   2.1911111111111112         -4.8523279838263988E-004
   2.2011111111111110         -3.7364449235610664E-004
   2.2111111111111112         -3.1944562215358019E-004
   2.2211111111111110         -3.1523185316473246E-004
   2.2311111111111113         -3.5347993252798915E-004
   2.2411111111111111         -4.2641951586119831E-004
   2.2511111111111113         -5.2599346963688731E-004
   2.2611111111111111         -6.4391322666779160E-004
   2.2711111111111113         -7.7180127846077085E-004
   2.2811111111111111         -9.0140133397653699E-004
   2.2911111111111113         -1.0248341131955385E-003
   2.3011111111111111         -1.1348777916282415E-003
   2.3111111111111113         -1.2252515880391002E-003
   2.3211111111111111         -1.2908854987472296E-003
   2.3311111111111114         -1.3281531864777207E-003
   2.3411111111111111         -1.3350417139008641E-003
   2.3511111111111114         -1.3112315209582448E-003
   2.3611111111111112         -1.2580666225403547E-003
   2.3711111111111114         -1.1784081580117345E-003
   2.3811111111111112         -1.0763822356238961E-003
   2.3911111111111114         -9.5704657724127173E-004
   2.4011111111111112         -8.2600855967029929E-004
   2.4111111111111114         -6.8902922794222832E-004
   2.4211111111111112         -5.5164279183372855E-004
   2.4311111111111114         -4.1881715878844261E-004
   2.4411111111111112         -2.9467718559317291E-004
   2.4511111111111110         -1.8231105059385300E-004
   2.4611111111111112         -8.3675644418690354E-005
   2.4711111111111110          3.9160116216407914E-007
   2.4811111111111113          7.0060013968031853E-005
   2.4911111111111111          1.2631277786567807E-004
   2.5011111111111113          1.7070636386051774E-004
   2.5111111111111111          2.0511925686150789E-004
   2.5211111111111113          2.3152268840931356E-004
   2.5311111111111111          2.5179560179822147E-004
   2.5411111111111113          2.6759420870803297E-004
   2.5511111111111111          2.8027678490616381E-004
   2.5611111111111113          2.9087811708450317E-004
   2.5711111111111111          3.0012591741979122E-004
   2.5811111111111114          3.0848878668621182E-004
   2.5911111111111111          3.1624225084669888E-004
   2.6011111111111114          3.2353668939322233E-004
   2.6111111111111112          3.3044954761862755E-004
   2.6211111111111114          3.3700885251164436E-004
   2.6311111111111112          3.4318288089707494E-004
   2.6411111111111114          3.4884395427070558E-004
   2.6511111111111112          3.5372198908589780E-004
   2.6611111111111114          3.5736936843022704E-004
   2.6711111111111112          3.5915439366362989E-004
   2.6811111111111114          3.5829248372465372E-004
   2.6911111111111112          3.5391413257457316E-004
   2.7011111111111110          3.4515990410000086E-004
   2.7111111111111112          3.3128849463537335E-004
   2.7211111111111110          3.1178304925560951E-004
   2.7311111111111113          2.8644135454669595E-004
   2.7411111111111111          2.5543817901052535E-004
   2.7511111111111113          2.1934899268671870E-004
   2.7611111111111111          1.7912899784278125E-004
   2.7711111111111113          1.3604643754661083E-004
   2.7811111111111111          9.1578243882395327E-005
   2.7911111111111113          4.7284476750064641E-005
   2.8011111111111111          4.6841337280056905E-006
   2.8111111111111113         -3.4845044865505770E-005
   2.8211111111111111         -7.0125897764228284E-005
   2.8311111111111114         -1.0019408364314586E-004
   2.8411111111111111         -1.2426887406036258E-004
   2.8511111111111114         -1.4169767382554710E-004
   2.8611111111111112         -1.5189409896265715E-004
   2.8711111111111114         -1.5429004270117730E-004
   2.8811111111111112         -1.4831822772976011E-004
   2.8911111111111114         -1.3343580940272659E-004
   2.9011111111111112         -1.0919292981270701E-004
   2.9111111111111114         -7.5342046329751611E-005
   2.9211111111111112         -3.1975763704394922E-005
   2.9311111111111114          2.0327288439148106E-005
   2.9411111111111112          8.0375248217023909E-005
   2.9511111111111110          1.4628366625402123E-004
   2.9611111111111112          2.1547055803239346E-004
   2.9711111111111110          2.8474364080466330E-004
   2.9811111111111113          3.5048532299697399E-004
   2.9911111111111111          4.0892639663070440E-004
   3.0011111111111113          4.5648656669072807E-004
   3.0111111111111111          4.9015006516128778E-004
   3.0211111111111113          5.0783879123628139E-004
   3.0311111111111111          5.0874502630904317E-004
   3.0411111111111113          4.9358728574588895E-004
   3.0511111111111111          4.6476084389723837E-004
   3.0611111111111113          4.2636151192709804E-004
   3.0711111111111111          3.8407513056881726E-004
   3.0811111111111114          3.4493723069317639E-004
   3.0911111111111111          3.1698172097094357E-004
   3.1011111111111114          3.0880869599059224E-004
   3.1111111111111112          3.2911021844483912E-004
   3.1211111111111109          3.8619572296738625E-004
   3.1311111111111116          4.8755717580206692E-004
   3.1411111111111114          6.3950585899874568E-004
   3.1511111111111112          8.4690155927091837E-004
   3.1611111111111110          1.1129813501611352E-003
   3.1711111111111117          1.4392811572179198E-003
   3.1811111111111114          1.8256318289786577E-003
   3.1911111111111112          2.2702009882777929E-003
   3.2011111111111110          2.7695496100932360E-003
   3.2111111111111108          3.3186753280460835E-003
   3.2211111111111115          3.9110197685658932E-003
   3.2311111111111113          4.5384331606328487E-003
   3.2411111111111111          5.1911002956330776E-003
   3.2511111111111108          5.8574499562382698E-003
   3.2611111111111115          6.5240804105997086E-003
   3.2711111111111113          7.1757426485419273E-003
   3.2811111111111111          7.7954195439815521E-003
   3.2911111111111109          8.3645358681678772E-003
   3.3011111111111116          8.8633187115192413E-003
   3.3111111111111113          9.2713031917810440E-003
   3.3211111111111111          9.5679741352796555E-003
   3.3311111111111109          9.7334980964660645E-003
   3.3411111111111116          9.7494963556528091E-003
   3.3511111111111114          9.5998067408800125E-003
   3.3611111111111112          9.2711858451366425E-003
   3.3711111111111109          8.7539032101631165E-003
   3.3811111111111116          8.0422172322869301E-003
   3.3911111111111114          7.1347127668559551E-003
   3.4011111111111112          6.0345102101564407E-003
   3.4111111111111110          4.7493590973317623E-003
   3.4211111111111117          3.2916327472776175E-003
   3.4311111111111114          1.6782423481345177E-003
   3.4411111111111112         -6.9520479883067310E-005
   3.4511111111111110         -1.9262126879766583E-003
   3.4611111111111117         -3.8625544402748346E-003
   3.4711111111111115         -5.8458503335714340E-003
   3.4811111111111113         -7.8405402600765228E-003
   3.4911111111111111         -9.8089016973972321E-003
   3.5011111111111108         -1.1711912229657173E-002
   3.5111111111111115         -1.3510252349078655E-002
   3.5211111111111113         -1.5165421180427074E-002
   3.5311111111111111         -1.6640910878777504E-002
   3.5411111111111109         -1.7903374508023262E-002
   3.5511111111111116         -1.8923737108707428E-002
   3.5611111111111113         -1.9678164273500443E-002
   3.5711111111111111         -2.0148847252130508E-002
   3.5811111111111109         -2.0324572920799255E-002
   3.5911111111111116         -2.0201060920953751E-002
   3.6011111111111114         -1.9781043753027916E-002
   3.6111111111111112         -1.9074130803346634E-002
   3.6211111111111109         -1.8096473067998886E-002
   3.6311111111111116         -1.6870249062776566E-002
   3.6411111111111114         -1.5423022210597992E-002
   3.6511111111111112         -1.3786982744932175E-002
   3.6611111111111110         -1.1998088099062443E-002
   3.6711111111111117         -1.0095140896737576E-002
   3.6811111111111114         -8.1187812611460686E-003
   3.6911111111111112         -6.1104400083422661E-003
   3.7011111111111110         -4.1112443432211876E-003
   3.7111111111111117         -2.1609237883239985E-003
   3.7211111111111115         -2.9673945391550660E-004
   3.7311111111111113          1.4475194038823247E-003
   3.7411111111111111          3.0424289871007204E-003
   3.7511111111111108          4.4636777602136135E-003
   3.7611111111111115          5.6926342658698559E-003
   3.7711111111111113          6.7167114466428757E-003
   3.7811111111111111          7.5295129790902138E-003
   3.7911111111111109          8.1307617947459221E-003
   3.8011111111111116          8.5260141640901566E-003
   3.8111111111111113          8.7261814624071121E-003
   3.8211111111111111          8.7468810379505157E-003
   3.8311111111111109          8.6076566949486732E-003
   3.8411111111111116          8.3311032503843307E-003
   3.8511111111111114          7.9419380053877831E-003
   3.8611111111111112          7.4660526588559151E-003
   3.8711111111111109          6.9295959547162056E-003
   3.8811111111111116          6.3581056892871857E-003
   3.8911111111111114          5.7757385075092316E-003
   3.9011111111111112          5.2046119235455990E-003
   3.9111111111111110          4.6642823144793510E-003
   3.9211111111111117          4.1713621467351913E-003
   3.9311111111111114          3.7392736412584782E-003
   3.9411111111111112          3.3781249076128006E-003
   3.9511111111111110          3.0946847982704639E-003
   3.9611111111111117          2.8924350626766682E-003
   3.9711111111111115          2.7716746553778648E-003
   3.9811111111111113          2.7296664193272591E-003
   3.9911111111111111          2.7608210220932961E-003
   4.0011111111111113          2.8569269925355911E-003
   4.0111111111111111          3.0074384994804859E-003
   4.0211111111111109          3.1998371705412865E-003
   4.0311111111111106          3.4200751688331366E-003
   4.0411111111111104          3.6531030200421810E-003
   4.0511111111111120          3.8834663573652506E-003
   4.0611111111111118          4.0959487669169903E-003
   4.0711111111111116          4.2762220837175846E-003
   4.0811111111111114          4.4114612974226475E-003
   4.0911111111111111          4.4908756390213966E-003
   4.1011111111111109          4.5061195269227028E-003
   4.1111111111111107          4.4515440240502357E-003
   4.1211111111111105          4.3242899700999260E-003
   4.1311111111111121          4.1242190636694431E-003
   4.1411111111111119          3.8537178188562393E-003
   4.1511111111111116          3.5174088552594185E-003
   4.1611111111111114          3.1218128278851509E-003
   4.1711111111111112          2.6749982498586178E-003
   4.1811111111111110          2.1862378343939781E-003
   4.1911111111111108          1.6656790394335985E-003
   4.2011111111111106          1.1240212479606271E-003
   4.2111111111111121          5.7218666188418865E-004
   4.2211111111111119          2.0973904611309990E-005
   4.2311111111111117         -5.1930826157331467E-004
   4.2411111111111115         -1.0392175754532218E-003
   4.2511111111111113         -1.5305420383810997E-003
   4.2611111111111111         -1.9866181537508965E-003
   4.2711111111111109         -2.4025661405175924E-003
   4.2811111111111106         -2.7754020411521196E-003
   4.2911111111111104         -3.1040015164762735E-003
   4.3011111111111120         -3.3889005426317453E-003
   4.3111111111111118         -3.6319450009614229E-003
   4.3211111111111116         -3.8358289748430252E-003
   4.3311111111111114         -4.0035871788859367E-003
   4.3411111111111111         -4.1381195187568665E-003
   4.3511111111111109         -4.2418269440531731E-003
   4.3611111111111107         -4.3164254166185856E-003
   4.3711111111111105         -4.3629631400108337E-003
   4.3811111111111121         -4.3820491991937160E-003
   4.3911111111111119         -4.3742461130023003E-003
   4.4011111111111116         -4.3405760079622269E-003
   4.4111111111111114         -4.2830593883991241E-003
   4.4211111111111112         -4.2052231729030609E-003
   4.4311111111111110         -4.1125114075839520E-003
   4.4411111111111108         -4.0125637315213680E-003
   4.4511111111111106         -3.9153420366346836E-003
   4.4611111111111121         -3.8331157993525267E-003
   4.4711111111111119         -3.7803489249199629E-003
   4.4811111111111117         -3.7735449150204659E-003
   4.4911111111111115         -3.8311241660267115E-003
   4.5011111111111113         -3.9733946323394775E-003
   4.5111111111111111         -4.2226640507578850E-003
   4.5211111111111109         -4.6035135164856911E-003
   4.5311111111111106         -5.1432233303785324E-003
   4.5411111111111104         -5.8723255060613155E-003
   4.5511111111111120         -6.8252463825047016E-003