 -0.88888888888888884         -1.5689652810603754E-027
 -0.87888888888888883         -1.8294303647885862E-024
 -0.86888888888888882         -2.5215047990546594E-021
 -0.85888888888888881         -5.9976673056685777E-021
 -0.84888888888888880         -6.6015966368755882E-020
 -0.83888888888888880         -3.5851367426180103E-019
 -0.82888888888888879         -1.1024654932300627E-018
 -0.81888888888888878         -2.4590586550195855E-018
 -0.80888888888888888         -4.7499974000311371E-018
 -0.79888888888888887         -8.8457718633297967E-018
 -0.78888888888888886         -1.5604828430261871E-017
 -0.77888888888888885         -2.3363367331341769E-017
 -0.76888888888888884         -2.4810524776086967E-017
 -0.75888888888888884         -7.4307685833557608E-018
 -0.74888888888888883          3.8895868743203229E-017
 -0.73888888888888882          1.0918037637915197E-016
 -0.72888888888888881          1.7370031857450032E-016
 -0.71888888888888880          1.7927290862981696E-016
 -0.70888888888888890          6.2415071938866313E-017
 -0.69888888888888889         -2.2689336562224975E-016
 -0.68888888888888888         -6.8170529790050256E-016
 -0.67888888888888888         -1.1590323452986199E-015
 -0.66888888888888887         -1.2856473596497848E-015
 -0.65888888888888886         -4.6264632529586505E-016
 -0.64888888888888885          1.8414079109581967E-015
 -0.63888888888888884          5.4189856066506371E-015
 -0.62888888888888883          8.5631592013643912E-015
 -0.61888888888888882          8.0018592663391730E-015
 -0.60888888888888881          4.1804421727141376E-016
 -0.59888888888888880         -1.4379751390818617E-014
 -0.58888888888888880         -3.0313591399414377E-014
 -0.57888888888888879         -3.5177525633091691E-014
 -0.56888888888888878         -1.6898964595290361E-014
 -0.55888888888888877          2.4950571800687674E-014
 -0.54888888888888876          6.9203215206925517E-014
 -0.53888888888888875          7.5608254737364461E-014
 -0.52888888888888885          7.6583391253495607E-015
 -0.51888888888888884         -1.2908637104114967E-013
 -0.50888888888888884         -2.5567503843249018E-013
 -0.49888888888888883         -2.2861178011410188E-013
 -0.48888888888888882          8.8042718731848324E-014
 -0.47888888888888881          7.0003481093469655E-013
 -0.46888888888888886          1.3712245314906335E-012
 -0.45888888888888885          1.6159607289442657E-012
 -0.44888888888888884          8.6987372600183521E-013
 -0.43888888888888883         -1.1692313783839836E-012
 -0.42888888888888882         -4.1599063603514619E-012
 -0.41888888888888881         -6.9208454071822967E-012
 -0.40888888888888886         -7.6427544848378659E-012
 -0.39888888888888885         -4.5883739516194844E-012
 -0.38888888888888884          2.8904595730794291E-012
 -0.37888888888888883          1.3441653172463486E-011
 -0.36888888888888882          2.3440527296969549E-011
 -0.35888888888888881          2.7753035980460083E-011
 -0.34888888888888880          2.1550414230908643E-011
 -0.33888888888888880          2.6935261746713346E-012
 -0.32888888888888879         -2.6200141015064737E-011
 -0.31888888888888878         -5.7009466591928515E-011
 -0.30888888888888888         -7.7417232346999043E-011
 -0.29888888888888887         -7.4405544225886189E-011
 -0.28888888888888886         -3.9303931637091338E-011
 -0.27888888888888885          2.6972354905119289E-011
 -0.26888888888888884          1.1035201918918602E-010
 -0.25888888888888884          1.8366734522157202E-010
 -0.24888888888888883          2.1186020993102517E-010
 -0.23888888888888882          1.6270208791357987E-010
 -0.22888888888888881          2.1486531304182321E-011
 -0.21888888888888880         -1.9427659481152659E-010
 -0.20888888888888879         -4.2636003061424788E-010
 -0.19888888888888878         -5.8051796703040281E-010
 -0.18888888888888877         -5.4945625826974265E-010
 -0.17888888888888888         -2.5370403000657404E-010
 -0.16888888888888887          3.0832353337117979E-010
 -0.15888888888888886          1.0185972065812621E-009
 -0.14888888888888885          1.6289978255201731E-009
 -0.13888888888888884          1.8028213366605428E-009
 -0.12888888888888883          1.2167135077234548E-009
 -0.11888888888888882         -2.9002217294404886E-010
 -0.10888888888888881         -2.5574444784126626E-009
  -9.8888888888888804E-002    -4.9981818683875190E-009
  -8.8888888888888795E-002    -6.6085279470939895E-009
  -7.8888888888888786E-002    -6.1488467650860912E-009
  -6.8888888888888777E-002    -2.5047277585343863E-009
  -5.8888888888888768E-002     4.8194785939870144E-009
  -4.8888888888888871E-002     1.5190142477194968E-008
  -3.8888888888888862E-002     2.6487647630801803E-008
  -2.8888888888888853E-002     3.5096466177719776E-008
  -1.8888888888888844E-002     3.6404824044211637E-008
  -8.8888888888888351E-003     2.5883146292926540E-008
   1.1111111111111738E-003     6.5655358927330099E-010
   1.1111111111111183E-002    -3.8705557869889162E-008
   2.1111111111111192E-002    -8.6649080799361400E-008
   3.1111111111111200E-002    -1.3194055270560057E-007
   4.1111111111111209E-002    -1.5842719847114495E-007
   5.1111111111111218E-002    -1.4771028133964137E-007
   6.1111111111111227E-002    -8.3863568534070509E-008
   7.1111111111111125E-002     4.0136011847380360E-008
   8.1111111111111134E-002     2.1511696957077220E-007
   9.1111111111111143E-002     4.0885626617637172E-007
  0.10111111111111115          5.6117448821169091E-007
  0.11111111111111116          5.8237856137566268E-007
  0.12111111111111117          3.5591202163232083E-007
  0.13111111111111118         -2.5485925903012685E-007
  0.14111111111111119         -1.3970260397400125E-006
  0.15111111111111120         -3.2182636005018139E-006
  0.16111111111111120         -5.8604282457963564E-006
  0.17111111111111121         -9.4609958978253417E-006
  0.18111111111111122         -1.4166681467031594E-005
  0.19111111111111123         -2.0162789951427840E-005
  0.20111111111111124         -2.7720163416233845E-005
  0.21111111111111125         -3.7259556847857311E-005
  0.22111111111111126         -4.9430786020820960E-005
  0.23111111111111127         -6.5201966208405793E-005
  0.24111111111111128         -8.5952895460650325E-005
  0.25111111111111128         -1.1356634786352515E-004
  0.26111111111111129         -1.5051226364448667E-004
  0.27111111111111108         -1.9992199668195099E-004
  0.28111111111111109         -2.6565315783955157E-004
  0.29111111111111110         -3.5234852111898363E-004
  0.30111111111111111         -4.6549495891667902E-004
  0.31111111111111112         -6.1149097746238112E-004
  0.32111111111111112         -7.9772953176870942E-004
  0.33111111111111113         -1.0327012278139591E-003
  0.34111111111111114         -1.3261185958981514E-003
  0.35111111111111115         -1.6890564002096653E-003
  0.36111111111111116         -2.1340954117476940E-003
  0.37111111111111117         -2.6754511054605246E-003
  0.38111111111111118         -3.3290658611804247E-003
  0.39111111111111119         -4.1126343421638012E-003
  0.40111111111111120         -5.0455313175916672E-003
  0.41111111111111120         -6.1486167833209038E-003
  0.42111111111111121         -7.4438853189349174E-003
  0.43111111111111122         -8.9539438486099243E-003
  0.44111111111111123         -1.0701290331780910E-002
  0.45111111111111124         -1.2707388028502464E-002
  0.46111111111111125         -1.4991525560617447E-002
  0.47111111111111126         -1.7569484189152718E-002
  0.48111111111111127         -2.0452005788683891E-002
  0.49111111111111128         -2.3643122985959053E-002
  0.50111111111111128         -2.7138371020555496E-002
  0.51111111111111129         -3.0922973528504372E-002
  0.52111111111111108         -3.4970067441463470E-002
  0.53111111111111109         -3.9239082485437393E-002
  0.54111111111111110         -4.3674375861883163E-002
  0.55111111111111111         -4.8204250633716583E-002
  0.56111111111111112         -5.2740473300218582E-002
  0.57111111111111112         -5.7178422808647156E-002
  0.58111111111111113         -6.1397902667522430E-002
  0.59111111111111114         -6.5264783799648285E-002
  0.60111111111111115         -6.8633392453193665E-002
  0.61111111111111116         -7.1349732577800751E-002
  0.62111111111111117         -7.3255494236946106E-002
  0.63111111111111118         -7.4192740023136139E-002
  0.64111111111111119         -7.4009150266647339E-002
  0.65111111111111120         -7.2563745081424713E-002
  0.66111111111111120         -6.9732874631881714E-002
  0.67111111111111121         -6.5416239202022552E-002
  0.68111111111111122         -5.9542708098888397E-002
  0.69111111111111123         -5.2075784653425217E-002
  0.70111111111111124         -4.3018329888582230E-002
  0.71111111111111125         -3.2416351139545441E-002
  0.72111111111111126         -2.0361589267849922E-002
  0.73111111111111127         -6.9926511496305466E-003
  0.74111111111111128          7.5055011548101902E-003
  0.75111111111111128          2.2903824225068092E-002
  0.76111111111111129          3.8933292031288147E-002
  0.77111111111111130          5.5290773510932922E-002
  0.78111111111111109          7.1646556258201599E-002
  0.79111111111111110          8.7653301656246185E-002
  0.80111111111111111         0.10295612365007401     
  0.81111111111111112         0.11720347404479980     
  0.82111111111111112         0.13005831837654114     
  0.83111111111111113         0.14120915532112122     
  0.84111111111111114         0.15038056671619415     
  0.85111111111111115         0.15734270215034485     
  0.86111111111111116         0.16191931068897247     
  0.87111111111111117         0.16399410367012024     
  0.88111111111111118         0.16351507604122162     
  0.89111111111111119         0.16049642860889435     
  0.90111111111111120         0.15501832962036133     
  0.91111111111111120         0.14722426235675812     
  0.92111111111111121         0.13731603324413300     
  0.93111111111111122         0.12554672360420227     
  0.94111111111111123         0.11221183091402054     
  0.95111111111111124          9.7638957202434540E-002
  0.96111111111111125          8.2176581025123596E-002
  0.97111111111111126          6.6182345151901245E-002
  0.98111111111111127          5.0011374056339264E-002
  0.99111111111111128          3.4005194902420044E-002
   1.0011111111111113          1.8481675535440445E-002
   1.0111111111111113          3.7263720296323299E-003
   1.0211111111111113         -1.0014415718615055E-002
   1.0311111111111111         -2.2538702934980392E-002
   1.0411111111111111         -3.3691901713609695E-002
   1.0511111111111111         -4.3367937207221985E-002
   1.0611111111111111         -5.1508534699678421E-002
   1.0711111111111111         -5.8100815862417221E-002
   1.0811111111111111         -6.3173472881317139E-002
   1.0911111111111111         -6.6791772842407227E-002
   1.1011111111111112         -6.9051690399646759E-002
   1.1111111111111112         -7.0073448121547699E-002
   1.1211111111111114         -6.9994792342185974E-002
   1.1311111111111112         -6.8964339792728424E-002
   1.1411111111111114         -6.7135147750377655E-002
   1.1511111111111112         -6.4658910036087036E-002
   1.1611111111111110         -6.1680939048528671E-002
   1.1711111111111112         -5.8336056768894196E-002
   1.1811111111111110         -5.4745543748140335E-002
   1.1911111111111112         -5.1015153527259827E-002
   1.2011111111111110         -4.7234121710062027E-002
   1.2111111111111112         -4.3475084006786346E-002
   1.2211111111111110         -3.9794769138097763E-002
   1.2311111111111113         -3.6235239356756210E-002
   1.2411111111111111         -3.2825585454702377E-002
   1.2511111111111113         -2.9583826661109924E-002
   1.2611111111111111         -2.6518963277339935E-002
   1.2711111111111113         -2.3632992058992386E-002
   1.2811111111111111         -2.0922856405377388E-002
   1.2911111111111113         -1.8382253125309944E-002
   1.3011111111111111         -1.6003269702196121E-002
   1.3111111111111113         -1.3777821324765682E-002
   1.3211111111111111         -1.1698833666741848E-002
   1.3311111111111114         -9.7611462697386742E-003
   1.3411111111111111         -7.9620955511927605E-003
   1.3511111111111114         -6.3017364591360092E-003
   1.3611111111111112         -4.7827060334384441E-003
   1.3711111111111114         -3.4097440075129271E-003
   1.3811111111111112         -2.1889230702072382E-003
   1.3911111111111114         -1.1266757501289248E-003
   1.4011111111111112         -2.2872105182614177E-004
   1.4111111111111114          5.0099595682695508E-004
   1.4211111111111112          1.0612483602017164E-003
   1.4311111111111110          1.4542684657499194E-003
   1.4411111111111112          1.6862221527844667E-003
   1.4511111111111110          1.7673873808234930E-003
   1.4611111111111112          1.7120359698310494E-003
   1.4711111111111110          1.5380422119051218E-003
   1.4811111111111113          1.2662638910114765E-003
   1.4911111111111111          9.1974885435774922E-004
   1.5011111111111113          5.2282650722190738E-004
   1.5111111111111111          1.0013749852078035E-004
   1.5211111111111113         -3.2434731838293374E-004
   1.5311111111111111         -7.2827353142201900E-004
   1.5411111111111113         -1.0917704785242677E-003
   1.5511111111111111         -1.3981935335323215E-003
   1.5611111111111113         -1.6346942866221070E-003
   1.5711111111111111         -1.7925770953297615E-003
   1.5811111111111114         -1.8674086313694715E-003
   1.5911111111111111         -1.8588689854368567E-003
   1.6011111111111114         -1.7703566700220108E-003
   1.6111111111111112         -1.6083853552117944E-003
   1.6211111111111114         -1.3818326406180859E-003
   1.6311111111111112         -1.1011164169758558E-003
   1.6411111111111114         -7.7737541869282722E-004
   1.6511111111111112         -4.2172387475147843E-004
   1.6611111111111114         -4.4639371481025591E-005
   1.6711111111111112          3.4447922371327877E-004
   1.6811111111111110          7.3756556957960129E-004
   1.6911111111111112          1.1279557365924120E-003
   1.7011111111111110          1.5102991601452231E-003
   1.7111111111111112          1.8803497077897191E-003
   1.7211111111111110          2.2346852347254753E-003
   1.7311111111111113          2.5704039726406336E-003
   1.7411111111111111          2.8848408255726099E-003
   1.7511111111111113          3.1753352377563715E-003
   1.7611111111111111          3.4390729852020741E-003
   1.7711111111111113          3.6730121355503798E-003
   1.7811111111111111          3.8738981820642948E-003
   1.7911111111111113          4.0383636951446533E-003
   1.8011111111111111          4.1631027124822140E-003
   1.8111111111111113          4.2450907640159130E-003
   1.8211111111111111          4.2818216606974602E-003
   1.8311111111111114          4.2715109884738922E-003
   1.8411111111111111          4.2132274247705936E-003
   1.8511111111111114          4.1069122962653637E-003
   1.8611111111111112          3.9532827213406563E-003
   1.8711111111111114          3.7536248564720154E-003
   1.8811111111111112          3.5095182247459888E-003
   1.8911111111111114          3.2225458417087793E-003
   1.9011111111111112          2.8940525371581316E-003
   1.9111111111111114          2.5250103790313005E-003
   1.9211111111111112          2.1160289179533720E-003
   1.9311111111111110          1.6675335355103016E-003
   1.9411111111111112          1.1801029322668910E-003
   1.9511111111111110          6.5493112197145820E-004
   1.9611111111111112          9.4354545581154525E-005
   1.9711111111111110         -4.9763068091124296E-004
   1.9811111111111113         -1.1149393394589424E-003
   1.9911111111111111         -1.7491210019215941E-003
   2.0011111111111113         -2.3892789613455534E-003
   2.0111111111111111         -3.0221934430301189E-003
   2.0211111111111113         -3.6326313856989145E-003
   2.0311111111111111         -4.2038043029606342E-003
   2.0411111111111113         -4.7179367393255234E-003
   2.0511111111111111         -5.1569119095802307E-003
   2.0611111111111113         -5.5029769428074360E-003
   2.0711111111111111         -5.7394960895180702E-003
   2.0811111111111114         -5.8517451398074627E-003
   2.0911111111111111         -5.8277198113501072E-003
   2.1011111111111114         -5.6589208543300629E-003
   2.1111111111111112         -5.3410516120493412E-003
   2.1211111111111114         -4.8745581880211830E-003
   2.1311111111111112         -4.2649270035326481E-003
   2.1411111111111114         -3.5226843319833279E-003
   2.1511111111111112         -2.6630482170730829E-003
   2.1611111111111114         -1.7052349867299199E-003
   2.1711111111111112         -6.7146099172532558E-004
   2.1811111111111114          4.1426694951951504E-004
   2.1911111111111112          1.5274379402399063E-003
   2.2011111111111110          2.6442389935255051E-003
   2.2111111111111112          3.7425169721245766E-003
   2.2211111111111110          4.8023788258433342E-003
   2.2311111111111113          5.8063762262463570E-003
   2.2411111111111111          6.7392964847385883E-003
   2.2511111111111113          7.5876615010201931E-003
   2.2611111111111111          8.3390865474939346E-003
   2.2711111111111113          8.9816730469465256E-003
   2.2811111111111111          9.5035918056964874E-003
   2.2911111111111113          9.8929740488529205E-003
   2.3011111111111111          1.0138170793652534E-002
   2.3111111111111113          1.0228349827229977E-002
   2.3211111111111111          1.0154378600418568E-002
   2.3311111111111114          9.9098645150661469E-003
   2.3411111111111111          9.4922138378024101E-003
   2.3511111111111114          8.9035602286458015E-003
   2.3611111111111112          8.1514464691281319E-003
   2.3711111111111114          7.2491616010665894E-003
   2.3811111111111112          6.2157153151929379E-003
   2.3911111111111114          5.0754602998495102E-003
   2.4011111111111112          3.8574268110096455E-003
   2.4111111111111114          2.5944390799850225E-003
   2.4211111111111112          1.3220865512266755E-003
   2.4311111111111114          7.7590826549567282E-005
   2.4411111111111112         -1.1014037299901247E-003
   2.4511111111111110         -2.1781041286885738E-003
   2.4611111111111112         -3.1178931239992380E-003
   2.4711111111111110         -3.8896710611879826E-003
   2.4811111111111113         -4.4671595096588135E-003
   2.4911111111111111         -4.8300968483090401E-003
   2.5011111111111113         -4.9652438610792160E-003
   2.5111111111111111         -4.8671294935047626E-003
   2.5211111111111113         -4.5384732075035572E-003
   2.5311111111111111         -3.9902436546981335E-003
   2.5411111111111113         -3.2413389999419451E-003
   2.5511111111111111         -2.3179007694125175E-003
   2.5611111111111113         -1.2523060431703925E-003
   2.5711111111111111         -8.1918085925281048E-005
   2.5811111111111114          1.1523097055032849E-003
   2.5911111111111111          2.4072753731161356E-003
   2.6011111111111114          3.6391299217939377E-003
   2.6111111111111112          4.8045837320387363E-003
   2.6211111111111114          5.8621047064661980E-003
   2.6311111111111112          6.7730215378105640E-003
   2.6411111111111114          7.5025567784905434E-003
   2.6511111111111112          8.0208126455545425E-003
   2.6611111111111114          8.3036944270133972E-003
   2.6711111111111112          8.3337603136897087E-003
   2.6811111111111114          8.1009259447455406E-003
   2.6911111111111112          7.6029859483242035E-003
   2.7011111111111110          6.8458835594356060E-003
   2.7111111111111112          5.8436915278434753E-003
   2.7211111111111110          4.6182749792933464E-003
   2.7311111111111113          3.1986203975975513E-003
   2.7411111111111111          1.6198516823351383E-003
   2.7511111111111113         -7.8030272561591119E-005
   2.7611111111111111         -1.8516101408749819E-003
   2.7711111111111113         -3.6556238774210215E-003
   2.7811111111111111         -5.4445201531052589E-003
   2.7911111111111113         -7.1739177219569683E-003
   2.8011111111111111         -8.8018868118524551E-003
   2.8111111111111113         -1.0290017351508141E-002
   2.8211111111111111         -1.1604278348386288E-002
   2.8311111111111114         -1.2715696357190609E-002
   2.8411111111111111         -1.3600868172943592E-002
   2.8511111111111114         -1.4242357574403286E-002
   2.8611111111111112         -1.4628973789513111E-002
   2.8711111111111114         -1.4755958691239357E-002
   2.8811111111111112         -1.4625084586441517E-002
   2.8911111111111114         -1.4244660735130310E-002
   2.9011111111111112         -1.3629429973661900E-002
   2.9111111111111114         -1.2800353579223156E-002
   2.9211111111111112         -1.1784212663769722E-002
   2.9311111111111114         -1.0613003745675087E-002
   2.9411111111111112         -9.3230828642845154E-003
   2.9511111111111110         -7.9540368169546127E-003
   2.9611111111111112         -6.5473206341266632E-003
   2.9711111111111110         -5.1447069272398949E-003
   2.9811111111111113         -3.7866509519517422E-003
   2.9911111111111111         -2.5106724351644516E-003
   3.0011111111111113         -1.3498628977686167E-003
   3.0111111111111111         -3.3162144245579839E-004
   3.0211111111111113          5.2329536993056536E-004
   3.0311111111111111          1.2013410450890660E-003
   3.0411111111111113          1.6963247908279300E-003
   3.0511111111111111          2.0091331098228693E-003
   3.0611111111111113          2.1470675710588694E-003
   3.0711111111111111          2.1228834521025419E-003
   3.0811111111111114          1.9536463078111410E-003
   3.0911111111111111          1.6595309134572744E-003
   3.1011111111111114          1.2626714305952191E-003
   3.1111111111111112          7.8613776713609695E-004
   3.1211111111111109          2.5306484894827008E-004
   3.1311111111111116         -3.1407384085468948E-004
   3.1411111111111114         -8.9407787891104817E-004
   3.1511111111111112         -1.4675470301881433E-003
   3.1611111111111110         -2.0173403900116682E-003
   3.1711111111111117         -2.5289668701589108E-003
   3.1811111111111114         -2.9908872675150633E-003
   3.1911111111111112         -3.3946970943361521E-003
   3.2011111111111110         -3.7351532373577356E-003
   3.2111111111111108         -4.0100133046507835E-003
   3.2211111111111115         -4.2196679860353470E-003
   3.2311111111111113         -4.3665673583745956E-003
   3.2411111111111111         -4.4544842094182968E-003
   3.2511111111111108         -4.4876877218484879E-003
   3.2611111111111115         -4.4701485894620419E-003
   3.2711111111111113         -4.4049005955457687E-003
   3.2811111111111111         -4.2936862446367741E-003
   3.2911111111111109         -4.1369516402482986E-003
   3.3011111111111116         -3.9342069067060947E-003
   3.3111111111111113         -3.6846769507974386E-003
   3.3211111111111111         -3.3881240524351597E-003
   3.3311111111111109         -3.0456860549747944E-003
   3.3411111111111116         -2.6605827733874321E-003
   3.3511111111111114         -2.2385742049664259E-003
   3.3611111111111112         -1.7881095409393311E-003
   3.3711111111111109         -1.3201549882069230E-003
   3.3811111111111116         -8.4773806156590581E-004
   3.3911111111111114         -3.8528151344507933E-004
   3.4011111111111112          5.2179730118950829E-005
   3.4111111111111110          4.4979943777434528E-004
   3.4211111111111117          7.9365394776687026E-004
   3.4311111111111114          1.0713500669226050E-003
   3.4411111111111112          1.2724852422252297E-003
   3.4511111111111110          1.3889748370274901E-003
   3.4611111111111117          1.4152838848531246E-003
   3.4711111111111115          1.3486057287082076E-003
   3.4811111111111113          1.1890084715560079E-003
   3.4911111111111111          9.3954039039090276E-004
   3.5011111111111108          6.0625030891969800E-004
   3.5111111111111115          1.9806790805887431E-004
   3.5211111111111113         -2.7350365417078137E-004
   3.5311111111111111         -7.9489452764391899E-004
   3.5411111111111109         -1.3511416036635637E-003
   3.5511111111111116         -1.9266543677076697E-003
   3.5611111111111113         -2.5059750769287348E-003
   3.5711111111111111         -3.0744399409741163E-003
   3.5811111111111109         -3.6186703946441412E-003
   3.5911111111111116         -4.1268635541200638E-003
   3.6011111111111114         -4.5888912864029408E-003
   3.6111111111111112         -4.9962601624429226E-003
   3.6211111111111109         -5.3419945761561394E-003
   3.6311111111111116         -5.6205363944172859E-003
   3.6411111111111114         -5.8277267962694168E-003
   3.6511111111111112         -5.9609217569231987E-003
   3.6611111111111110         -6.0192472301423550E-003
   3.6711111111111117         -6.0039544478058815E-003
   3.6811111111111114         -5.9187724255025387E-003
   3.6911111111111112         -5.7701496407389641E-003
   3.7011111111111110         -5.5672540329396725E-003
   3.7111111111111117         -5.3216582164168358E-003
   3.7211111111111115         -5.0466908141970634E-003
   3.7311111111111113         -4.7565097920596600E-003
   3.7411111111111111         -4.4650104828178883E-003
   3.7511111111111108         -4.1847196407616138E-003
   3.7611111111111115         -3.9258194155991077E-003
   3.7711111111111113         -3.6954106763005257E-003
   3.7811111111111111         -3.4970832057297230E-003
   3.7911111111111109         -3.3308039419353008E-003
   3.8011111111111116         -3.1930971890687943E-003
   3.8111111111111113         -3.0774534679949284E-003
   3.8211111111111111         -2.9749001841992140E-003
   3.8311111111111109         -2.8746530879288912E-003
   3.8411111111111116         -2.7647796086966991E-003
   3.8511111111111114         -2.6328230742365122E-003
   3.8611111111111112         -2.4663575459271669E-003
   3.8711111111111109         -2.2534776944667101E-003
   3.8811111111111116         -1.9832435064017773E-003
   3.8911111111111114         -1.6461090417578816E-003
   3.9011111111111112         -1.2343588750809431E-003
   3.9111111111111110         -7.4254267383366823E-004
   3.9211111111111117         -1.6787764616310596E-004
   3.9311111111111114          4.8942846478894353E-004
   3.9411111111111112          1.2259801151230931E-003
   3.9511111111111110          2.0351507700979710E-003
   3.9611111111111117          2.9071897733956575E-003
   3.9711111111111115          3.8294533733278513E-003
   3.9811111111111113          4.7867209650576115E-003
   3.9911111111111111          5.7615544646978378E-003
   4.0011111111111113          6.7346920259296894E-003
   4.0111111111111111          7.6854624785482883E-003
   4.0211111111111109          8.5922451689839363E-003
   4.0311111111111106          9.4329854473471642E-003
   4.0411111111111104          1.0185779072344303E-002
   4.0511111111111120          1.0829537175595760E-002
   4.0611111111111118          1.1344725266098976E-002
   4.0711111111111116          1.1714173480868340E-002
   4.0811111111111114          1.1923931539058685E-002
   4.0911111111111111          1.1964128352701664E-002
   4.1011111111111109          1.1829756200313568E-002
   4.1111111111111107          1.1521304026246071E-002
   4.1211111111111105          1.1045117862522602E-002
   4.1311111111111121          1.0413423180580139E-002
   4.1411111111111119          9.6439542248845100E-003
   4.1511111111111116          8.7592052295804024E-003
   4.1611111111111114          7.7853626571595669E-003
   4.1711111111111112          6.7510157823562622E-003
   4.1811111111111110          5.6857676245272160E-003
   4.1911111111111108          4.6188556589186192E-003
   4.2011111111111106          3.5778882447630167E-003
   4.2111111111111121          2.5877787265926600E-003
   4.2211111111111119          1.6699346015229821E-003
   4.2311111111111117          8.4172748029232025E-004
   4.2411111111111115          1.1624076432781294E-004
   4.2511111111111113         -4.9775367369875312E-004
   4.2611111111111111         -9.9566730204969645E-004
   4.2711111111111109         -1.3769076904281974E-003
   4.2811111111111106         -1.6447080997750163E-003
   4.2911111111111104         -1.8060097936540842E-003
   4.3011111111111120         -1.8713811878114939E-003
   4.3111111111111118         -1.8549069063737988E-003
   4.3211111111111116         -1.7739543691277504E-003
   4.3311111111111114         -1.6487315297126770E-003
   4.3411111111111111         -1.5015836106613278E-003
   4.3511111111111109         -1.3560315128415823E-003
   4.3611111111111107         -1.2356037041172385E-003
   4.3711111111111105         -1.1625563492998481E-003
   4.3811111111111121         -1.1566046159714460E-003
   4.3911111111111119         -1.2337872758507729E-003
   4.4011111111111116         -1.4055838109925389E-003
   4.4111111111111114         -1.6783752944320440E-003
   4.4211111111111112         -2.0532924681901932E-003
   4.4311111111111110         -2.5264502037316561E-003
   4.4411111111111108         -3.0894940719008446E-003
   4.4511111111111106         -3.7303476128727198E-003
   4.4611111111111121         -4.4340211898088455E-003
   4.4711111111111119         -5.1833596080541611E-003
   4.4811111111111117         -5.9596542268991470E-003
   4.4911111111111115         -6.7431121133267879E-003
   4.5011111111111113         -7.5132278725504875E-003
   4.5111111111111111         -8.2491422072052956E-003
   4.5211111111111109         -8.9300582185387611E-003
   4.5311111111111106         -9.5357652753591537E-003
   4.5411111111111104         -1.0047256015241146E-002
   4.5511111111111120         -1.0447393171489239E-002