 -0.88888888888888884         -7.6672546822051021E-024
 -0.87888888888888883         -1.3909705400546015E-021
 -0.86888888888888882         -4.8335404705498849E-019
 -0.85888888888888881         -1.0684746773063040E-018
 -0.84888888888888880         -7.3624566996486815E-018
 -0.83888888888888880         -3.8828929979312988E-017
 -0.82888888888888879         -1.1547319590254099E-016
 -0.81888888888888878         -2.2203123768633245E-016
 -0.80888888888888888         -2.8911495008967255E-016
 -0.79888888888888887         -2.3115182376457074E-016
 -0.78888888888888886         -1.7448944887887591E-017
 -0.77888888888888885          3.0575210654184551E-016
 -0.76888888888888884          6.8237890085180654E-016
 -0.75888888888888884          1.1181508294949832E-015
 -0.74888888888888883          1.6246979195349729E-015
 -0.73888888888888882          2.0518689168130518E-015
 -0.72888888888888881          2.0194051085601098E-015
 -0.71888888888888880          1.0744179890326516E-015
 -0.70888888888888890         -1.2087935192465604E-015
 -0.69888888888888889         -5.6239438629636547E-015
 -0.68888888888888888         -1.3825006643772200E-014
 -0.67888888888888888         -2.7045494343418477E-014
 -0.66888888888888887         -4.1176013065771094E-014
 -0.65888888888888886         -4.0128788963630924E-014
 -0.64888888888888885          4.0213164456605766E-015
 -0.63888888888888884          1.1297620418392398E-013
 -0.62888888888888883          2.6517885652090067E-013
 -0.61888888888888882          3.6271059398150507E-013
 -0.60888888888888881          2.4713258241042257E-013
 -0.59888888888888880         -1.9953298995706303E-013
 -0.58888888888888880         -8.9202392217560544E-013
 -0.57888888888888879         -1.4306740471134449E-012
 -0.56888888888888878         -1.2048840657835624E-012
 -0.55888888888888877          2.0283528003907370E-013
 -0.54888888888888876          2.4538693559755798E-012
 -0.53888888888888875          4.1427876754096538E-012
 -0.52888888888888885          3.2339244129819811E-012
 -0.51888888888888884         -1.5739210065465747E-012
 -0.50888888888888884         -9.0759908269455458E-012
 -0.49888888888888883         -1.4632040370998745E-011
 -0.48888888888888882         -1.1470101778099373E-011
 -0.47888888888888881          5.3078158188113456E-012
 -0.46888888888888886          3.3416179545664448E-011
 -0.45888888888888885          6.0036815796582488E-011
 -0.44888888888888884          6.4123435727925227E-011
 -0.43888888888888883          2.5985666743388869E-011
 -0.42888888888888882         -5.8494188659441448E-011
 -0.41888888888888881         -1.6612250464120848E-010
 -0.40888888888888886         -2.4591076397406653E-010
 -0.39888888888888885         -2.3525242864863571E-010
 -0.38888888888888884         -9.0079756154270996E-011
 -0.37888888888888883          1.8295845394256105E-010
 -0.36888888888888882          5.0935905493432188E-010
 -0.35888888888888881          7.5841932734022066E-010
 -0.34888888888888880          7.8562123473346901E-010
 -0.33888888888888880          4.9239512467380564E-010
 -0.32888888888888879         -1.2080528244418076E-010
 -0.31888888888888878         -9.3180385629665352E-010
 -0.30888888888888888         -1.7158809928474739E-009
 -0.29888888888888887         -2.2005923749901513E-009
 -0.28888888888888886         -2.1366350910767551E-009
 -0.27888888888888885         -1.3635702567071917E-009
 -0.26888888888888884          1.4107227885862272E-010
 -0.25888888888888884          2.2284130096750232E-009
 -0.24888888888888883          4.5558743444473748E-009
 -0.23888888888888882          6.5813106076006989E-009
 -0.22888888888888881          7.5967543367028156E-009
 -0.21888888888888880          6.8342869141702067E-009
 -0.20888888888888879          3.6620564358713636E-009
 -0.19888888888888878         -2.1523487436780897E-009
 -0.18888888888888877         -1.0184598941975764E-008
 -0.17888888888888888         -1.9206551016281992E-008
 -0.16888888888888887         -2.7238943545171423E-008
 -0.15888888888888886         -3.1830445834657439E-008
 -0.14888888888888885         -3.0505653114687448E-008
 -0.13888888888888884         -2.1265512017976107E-008
 -0.12888888888888883         -3.0274867057755728E-009
 -0.11888888888888882          2.4037278834043718E-008
 -0.10888888888888881          5.8218134313392511E-008
  -9.8888888888888804E-002     9.5928456289584574E-008
  -8.8888888888888795E-002     1.3126796716278477E-007
  -7.8888888888888786E-002     1.5559457722247316E-007
  -6.8888888888888777E-002     1.5742904224680387E-007
  -5.8888888888888768E-002     1.2317669018102606E-007
  -4.8888888888888871E-002     3.9155221287501263E-008
  -3.8888888888888862E-002    -1.0478999001861666E-007
  -2.8888888888888853E-002    -3.1020914548207656E-007
  -1.8888888888888844E-002    -5.6417138694087043E-007
  -8.8888888888888351E-003    -8.3382934690234833E-007
   1.1111111111111738E-003    -1.0631974873831496E-006
   1.1111111111111183E-002    -1.1743305776690249E-006
   2.1111111111111192E-002    -1.0752914931799751E-006
   3.1111111111111200E-002    -6.7713222051679622E-007
   4.1111111111111209E-002     7.8594595720460347E-008
   5.1111111111111218E-002     1.1816575806733454E-006
   6.1111111111111227E-002     2.5062124677788233E-006
   7.1111111111111125E-002     3.7593465549434768E-006
   8.1111111111111134E-002     4.4314738261164166E-006
   9.1111111111111143E-002     3.7559948395937681E-006
  0.10111111111111115          6.8500889938150067E-007
  0.11111111111111116         -6.1147979977249634E-006
  0.12111111111111117         -1.8246511899633333E-005
  0.13111111111111118         -3.7553691072389483E-005
  0.14111111111111119         -6.6089116444345564E-005
  0.15111111111111120         -1.0609788296278566E-004
  0.16111111111111120         -1.6003340715542436E-004
  0.17111111111111121         -2.3062361287884414E-004
  0.18111111111111122         -3.2100063981488347E-004
  0.19111111111111123         -4.3489955714903772E-004
  0.20111111111111124         -5.7692162226885557E-004
  0.21111111111111125         -7.5284566264599562E-004
  0.22111111111111126         -9.6996099455282092E-004
  0.23111111111111127         -1.2373860226944089E-003
  0.24111111111111128         -1.5663336962461472E-003
  0.25111111111111128         -1.9702864810824394E-003
  0.26111111111111129         -2.4650525301694870E-003
  0.27111111111111108         -3.0686855316162109E-003
  0.28111111111111109         -3.8012634031474590E-003
  0.29111111111111110         -4.6845320612192154E-003
  0.30111111111111111         -5.7414299808442593E-003
  0.31111111111111112         -6.9955009967088699E-003
  0.32111111111111112         -8.4702102467417717E-003
  0.33111111111111113         -1.0188159532845020E-002
  0.34111111111111114         -1.2170199304819107E-002
  0.35111111111111115         -1.4434410259127617E-002
  0.36111111111111116         -1.6994956880807877E-002
  0.37111111111111117         -1.9860781729221344E-002
  0.38111111111111118         -2.3034159094095230E-002
  0.39111111111111119         -2.6509135961532593E-002
  0.40111111111111120         -3.0269892886281013E-002
  0.41111111111111120         -3.4289121627807617E-002
  0.42111111111111121         -3.8526512682437897E-002
  0.43111111111111122         -4.2927484959363937E-002
  0.44111111111111123         -4.7422248870134354E-002
  0.45111111111111124         -5.1925387233495712E-002
  0.46111111111111125         -5.6335974484682083E-002
  0.47111111111111126         -6.0538362711668015E-002
  0.48111111111111127         -6.4403668045997620E-002
  0.49111111111111128         -6.7791953682899475E-002
  0.50111111111111128         -7.0555150508880615E-002
  0.51111111111111129         -7.2540678083896637E-002
  0.52111111111111108         -7.3595732450485229E-002
  0.53111111111111109         -7.3572114109992981E-002
  0.54111111111111110         -7.2331644594669342E-002
  0.55111111111111111         -6.9751791656017303E-002
  0.56111111111111112         -6.5731607377529144E-002
  0.57111111111111112         -6.0197513550519943E-002
  0.58111111111111113         -5.3108815103769302E-002
  0.59111111111111114         -4.4462539255619049E-002
  0.60111111111111115         -3.4297376871109009E-002
  0.61111111111111116         -2.2696346044540405E-002
  0.62111111111111117         -9.7879758104681969E-003
  0.63111111111111118          4.2542451992630959E-003
  0.64111111111111119          1.9214214757084846E-002
  0.65111111111111120          3.4837368875741959E-002
  0.66111111111111120          5.0836544483900070E-002
  0.67111111111111121          6.6899307072162628E-002
  0.68111111111111122          8.2696534693241119E-002
  0.69111111111111123          9.7891800105571747E-002
  0.70111111111111124         0.11215133965015411     
  0.71111111111111125         0.12515409290790558     
  0.72111111111111126         0.13660156726837158     
  0.73111111111111127         0.14622698724269867     
  0.74111111111111128         0.15380370616912842     
  0.75111111111111128         0.15915225446224213     
  0.76111111111111129         0.16214592754840851     
  0.77111111111111130         0.16271471977233887     
  0.78111111111111109         0.16084736585617065     
  0.79111111111111110         0.15659137070178986     
  0.80111111111111111         0.15005111694335938     
  0.81111111111111112         0.14138399064540863     
  0.82111111111111112         0.13079491257667542     
  0.83111111111111113         0.11852923780679703     
  0.84111111111111114         0.10486461967229843     
  0.85111111111111115          9.0102054178714752E-002
  0.86111111111111116          7.4556604027748108E-002
  0.87111111111111117          5.8548197150230408E-002
  0.88111111111111118          4.2392846196889877E-002
  0.89111111111111119          2.6394598186016083E-002
  0.90111111111111120          1.0838359594345093E-002
  0.91111111111111120         -4.0161670185625553E-003
  0.92111111111111121         -1.7939411103725433E-002
  0.93111111111111122         -3.0735664069652557E-002
  0.94111111111111123         -4.2245618999004364E-002
  0.95111111111111124         -5.2347756922245026E-002
  0.96111111111111125         -6.0958616435527802E-002
  0.97111111111111126         -6.8032063543796539E-002
  0.98111111111111127         -7.3557645082473755E-002
  0.99111111111111128         -7.7558159828186035E-002
   1.0011111111111113         -8.0086573958396912E-002
   1.0111111111111113         -8.1222400069236755E-002
   1.0211111111111113         -8.1067718565464020E-002
   1.0311111111111111         -7.9742938280105591E-002
   1.0411111111111111         -7.7382475137710571E-002
   1.0511111111111111         -7.4130475521087646E-002
   1.0611111111111111         -7.0136696100234985E-002
   1.0711111111111111         -6.5552599728107452E-002
   1.0811111111111111         -6.0527712106704712E-002
   1.0911111111111111         -5.5206261575222015E-002
   1.1011111111111112         -4.9724202603101730E-002
   1.1111111111111112         -4.4206593185663223E-002
   1.1211111111111114         -3.8765419274568558E-002
   1.1311111111111112         -3.3497937023639679E-002
   1.1411111111111114         -2.8485557064414024E-002
   1.1511111111111112         -2.3793302476406097E-002
   1.1611111111111110         -1.9469834864139557E-002
   1.1711111111111112         -1.5547982417047024E-002
   1.1811111111111110         -1.2045701965689659E-002
   1.1911111111111112         -8.9674107730388641E-003
   1.2011111111111110         -6.3056056387722492E-003
   1.2111111111111112         -4.0426892228424549E-003
   1.2211111111111110         -2.1529397927224636E-003
   1.2311111111111113         -6.0454738559201360E-004
   1.2411111111111111          6.3835014589130878E-004
   1.2511111111111113          1.6136920312419534E-003
   1.2611111111111111          2.3596375249326229E-003
   1.2711111111111113          2.9128715395927429E-003
   1.2811111111111111          3.3071318175643682E-003
   1.2911111111111113          3.5720099695026875E-003
   1.3011111111111111          3.7320987321436405E-003
   1.3111111111111113          3.8065488915890455E-003
   1.3211111111111111          3.8090776652097702E-003
   1.3311111111111114          3.7484224885702133E-003
   1.3411111111111111          3.6291810683906078E-003
   1.3511111111111114          3.4529245458543301E-003
   1.3611111111111112          3.2194405794143677E-003
   1.3711111111111114          2.9279615264385939E-003
   1.3811111111111112          2.5782645680010319E-003
   1.3911111111111114          2.1715760231018066E-003
   1.4011111111111112          1.7112510977312922E-003
   1.4111111111111114          1.2032334925606847E-003
   1.4211111111111112          6.5630808239802718E-004
   1.4311111111111110          8.2156941061839461E-005
   1.4411111111111112         -5.0477840704843402E-004
   1.4511111111111110         -1.0876287706196308E-003
   1.4611111111111112         -1.6476190648972988E-003
   1.4711111111111110         -2.1647703833878040E-003
   1.4811111111111113         -2.6187642943114042E-003
   1.4911111111111111         -2.9899433720856905E-003
   1.5011111111111113         -3.2604061998426914E-003
   1.5111111111111111         -3.4151372965425253E-003
   1.5211111111111113         -3.4430751111358404E-003
   1.5311111111111111         -3.3379972446709871E-003
   1.5411111111111113         -3.0990911182016134E-003
   1.5511111111111111         -2.7310969308018684E-003
   1.5611111111111113         -2.2439765743911266E-003
   1.5711111111111111         -1.6521415673196316E-003
   1.5811111111111114         -9.7336538601666689E-004
   1.5911111111111111         -2.2755951795261353E-004
   1.6011111111111114          5.6439527543261647E-004
   1.6111111111111112          1.3816100545227528E-003
   1.6211111111111114          2.2038617171347141E-003
   1.6311111111111112          3.0119782313704491E-003
   1.6411111111111114          3.7879890296608210E-003
   1.6511111111111112          4.5151291415095329E-003
   1.6611111111111114          5.1777795888483524E-003
   1.6711111111111112          5.7614254765212536E-003
   1.6811111111111110          6.2526813708245754E-003
   1.6911111111111112          6.6394256427884102E-003
   1.7011111111111110          6.9110519252717495E-003
   1.7111111111111112          7.0588113740086555E-003
   1.7211111111111110          7.0761893875896931E-003
   1.7311111111111113          6.9592259824275970E-003
   1.7411111111111111          6.7067029885947704E-003
   1.7511111111111113          6.3201412558555603E-003
   1.7611111111111111          5.8036320842802525E-003
   1.7711111111111113          5.1635750569403172E-003
   1.7811111111111111          4.4084410183131695E-003
   1.7911111111111113          3.5486556589603424E-003
   1.8011111111111111          2.5966395623981953E-003
   1.8111111111111113          1.5669602435082197E-003
   1.8211111111111111          4.7648377949371934E-004
   1.8311111111111114         -6.5559888025745749E-004
   1.8411111111111111         -1.8079692963510752E-003
   1.8511111111111114         -2.9576299712061882E-003
   1.8611111111111112         -4.0805628523230553E-003
   1.8711111111111114         -5.1525174640119076E-003
   1.8811111111111112         -6.1498363502323627E-003
   1.8911111111111114         -7.0502390153706074E-003
   1.9011111111111112         -7.8335078433156013E-003
   1.9111111111111114         -8.4820222109556198E-003
   1.9211111111111112         -8.9810928329825401E-003
   1.9311111111111110         -9.3190697953104973E-003
   1.9411111111111112         -9.4872163608670235E-003
   1.9511111111111110         -9.4794156029820442E-003
   1.9611111111111112         -9.2918248847126961E-003
   1.9711111111111110         -8.9226150885224342E-003
   1.9811111111111113         -8.3719110116362572E-003
   1.9911111111111111         -7.6419608667492867E-003
   2.0011111111111113         -6.7374869249761105E-003
   2.0111111111111111         -5.6660822592675686E-003
   2.0211111111111113         -4.4385241344571114E-003
   2.0311111111111111         -3.0689209233969450E-003
   2.0411111111111113         -1.5746948774904013E-003
   2.0511111111111111          2.3541790142189711E-005
   2.0611111111111113          1.7021368257701397E-003
   2.0711111111111111          3.4345430321991444E-003
   2.0811111111111114          5.1914928480982780E-003
   2.0911111111111111          6.9412905722856522E-003
   2.1011111111111114          8.6503233760595322E-003
   2.1111111111111112          1.0283841751515865E-002
   2.1211111111111114          1.1807008646428585E-002
   2.1311111111111112          1.3186157681047916E-002
   2.1411111111111114          1.4390179887413979E-002
   2.1511111111111112          1.5391957946121693E-002
   2.1611111111111114          1.6169775277376175E-002
   2.1711111111111112          1.6708586364984512E-002
   2.1811111111111114          1.7001016065478325E-002
   2.1911111111111112          1.7047872766852379E-002
   2.2011111111111110          1.6858017072081566E-002
   2.2111111111111112          1.6447450965642929E-002
   2.2211111111111110          1.5837723389267921E-002
   2.2311111111111113          1.5053845010697842E-002
   2.2411111111111111          1.4122079126536846E-002
   2.2511111111111113          1.3067981228232384E-002
   2.2611111111111111          1.1914982460439205E-002
   2.2711111111111113          1.0683633387088776E-002
   2.2811111111111111          9.3915201723575592E-003
   2.2911111111111113          8.0537153407931328E-003
   2.3011111111111111          6.6836224868893623E-003
   2.3111111111111113          5.2940524183213711E-003
   2.3211111111111111          3.8983756676316261E-003
   2.3311111111111114          2.5115855969488621E-003
   2.3411111111111111          1.1510613840073347E-003
   2.3511111111111114         -1.6317165864165872E-004
   2.3611111111111112         -1.4088376192376018E-003
   2.3711111111111114         -2.5624837726354599E-003
   2.3811111111111112         -3.6010986659675837E-003
   2.3911111111111114         -4.5040142722427845E-003
   2.4011111111111112         -5.2547934465110302E-003
   2.4111111111111114         -5.8428607881069183E-003
   2.4211111111111112         -6.2647429294884205E-003
   2.4311111111111114         -6.5249046310782433E-003
   2.4411111111111112         -6.6361953504383564E-003
   2.4511111111111110         -6.6198953427374363E-003
   2.4611111111111112         -6.5052914433181286E-003
   2.4711111111111110         -6.3286726363003254E-003
   2.4811111111111113         -6.1316797509789467E-003
   2.4911111111111111         -5.9590623714029789E-003
   2.5011111111111113         -5.8560241013765335E-003
   2.5111111111111111         -5.8654467575252056E-003
   2.5211111111111113         -6.0252654366195202E-003
   2.5311111111111111         -6.3662054017186165E-003
   2.5411111111111113         -6.9099715910851955E-003
   2.5511111111111111         -7.6679042540490627E-003
   2.5611111111111113         -8.6401151493191719E-003
   2.5711111111111111         -9.8151527345180511E-003
   2.5811111111111114         -1.1170289479196072E-002
   2.5911111111111111         -1.2672491371631622E-002
   2.6011111111111114         -1.4280049130320549E-002
   2.6111111111111112         -1.5944696962833405E-002
   2.6211111111111114         -1.7613966017961502E-002
   2.6311111111111112         -1.9233504310250282E-002
   2.6411111111111114         -2.0749192684888840E-002
   2.6511111111111112         -2.2109042853116989E-002
   2.6611111111111114         -2.3264948278665543E-002
   2.6711111111111112         -2.4174394086003304E-002
   2.6811111111111114         -2.4802111089229584E-002
   2.6911111111111112         -2.5121558457612991E-002
   2.7011111111111110         -2.5116043165326118E-002
   2.7111111111111112         -2.4779250845313072E-002
   2.7211111111111110         -2.4115117266774178E-002
   2.7311111111111113         -2.3137109354138374E-002
   2.7411111111111111         -2.1867081522941589E-002
   2.7511111111111113         -2.0333925262093544E-002
   2.7611111111111111         -1.8572121858596802E-002
   2.7711111111111113         -1.6620254144072533E-002
   2.7811111111111111         -1.4519456773996353E-002
   2.7911111111111113         -1.2311870232224464E-002
   2.8011111111111111         -1.0039177723228931E-002
   2.8111111111111113         -7.7414158731698990E-003
   2.8211111111111111         -5.4561942815780640E-003
   2.8311111111111114         -3.2183472067117691E-003
   2.8411111111111111         -1.0598746594041586E-003
   2.8511111111111114          9.9006458185613155E-004
   2.8611111111111112          2.9053352773189545E-003
   2.8711111111111114          4.6632718294858932E-003
   2.8811111111111112          6.2452889978885651E-003
   2.8911111111111114          7.6374243944883347E-003
   2.9011111111111112          8.8305659592151642E-003
   2.9111111111111114          9.8202517256140709E-003
   2.9211111111111112          1.0606098920106888E-002
   2.9311111111111114          1.1191064491868019E-002
   2.9411111111111112          1.1580777354538441E-002
   2.9511111111111110          1.1783078312873840E-002
   2.9611111111111112          1.1807789094746113E-002
   2.9711111111111110          1.1666621081531048E-002
   2.9811111111111113          1.1373125948011875E-002
   2.9911111111111111          1.0942641645669937E-002
   3.0011111111111113          1.0392257943749428E-002
   3.0111111111111111          9.7408294677734375E-003
   3.0211111111111113          9.0089971199631691E-003
   3.0311111111111111          8.2190735265612602E-003
   3.0411111111111113          7.3945992626249790E-003
   3.0511111111111111          6.5594641491770744E-003
   3.0611111111111113          5.7366355322301388E-003
   3.0711111111111111          4.9467724747955799E-003
   3.0811111111111114          4.2071039788424969E-003
   3.0911111111111111          3.5309069789946079E-003
   3.1011111111111114          2.9277240391820669E-003
   3.1111111111111112          2.4041635915637016E-003
   3.1211111111111109          1.9649332389235497E-003
   3.1311111111111116          1.6136831836774945E-003
   3.1411111111111114          1.3533574528992176E-003
   3.1511111111111112          1.1859654914587736E-003
   3.1611111111111110          1.1118862312287092E-003
   3.1711111111111117          1.1289290850982070E-003
   3.1811111111111114          1.2313807383179665E-003
   3.1911111111111112          1.4092162018641829E-003
   3.2011111111111110          1.6476110322400928E-003
   3.2111111111111108          1.9268969772383571E-003
   3.2211111111111115          2.2231217008084059E-003
   3.2311111111111113          2.5093373842537403E-003
   3.2411111111111111          2.7576126158237457E-003
   3.2511111111111108          2.9415339231491089E-003
   3.2611111111111115          3.0387458391487598E-003
   3.2711111111111113          3.0329758301377296E-003
   3.2811111111111111          2.9150780756026506E-003
   3.2911111111111109          2.6829116977751255E-003
   3.3011111111111116          2.3402187507599592E-003
   3.3111111111111113          1.8949521472677588E-003
   3.3211111111111111          1.3575922930613160E-003
   3.3311111111111109          7.3987431824207306E-004
   3.3411111111111116          5.4106698371469975E-005
   3.3511111111111114         -6.8698474206030369E-004
   3.3611111111111112         -1.4700966421514750E-003
   3.3711111111111109         -2.2810890804976225E-003
   3.3811111111111116         -3.1047747470438480E-003
   3.3911111111111114         -3.9248326793313026E-003
   3.4011111111111112         -4.7239004634320736E-003
   3.4111111111111110         -5.4839272052049637E-003
   3.4211111111111117         -6.1868736520409584E-003
   3.4311111111111114         -6.8157683126628399E-003
   3.4411111111111112         -7.3559931479394436E-003
   3.4511111111111110         -7.7965054661035538E-003
   3.4611111111111117         -8.1306369975209236E-003
   3.4711111111111115         -8.3561912178993225E-003
   3.4811111111111113         -8.4748119115829468E-003
   3.4911111111111111         -8.4908697754144669E-003
   3.5011111111111108         -8.4103066474199295E-003
   3.5111111111111115         -8.2398699596524239E-003
   3.5211111111111113         -7.9869898036122322E-003
   3.5311111111111111         -7.6602301560342312E-003
   3.5411111111111109         -7.2700181044638157E-003
   3.5511111111111116         -6.8292422220110893E-003
   3.5611111111111113         -6.3534043729305267E-003
   3.5711111111111111         -5.8602173812687397E-003
   3.5811111111111109         -5.3687156178057194E-003
   3.5911111111111116         -4.8980601131916046E-003
   3.6011111111111114         -4.4662160798907280E-003
   3.6111111111111112         -4.0886257775127888E-003
   3.6211111111111109         -3.7769789341837168E-003
   3.6311111111111116         -3.5382057540118694E-003
   3.6411111111111114         -3.3738797064870596E-003
   3.6511111111111112         -3.2802189234644175E-003
   3.6611111111111110         -3.2487737480551004E-003
   3.6711111111111117         -3.2676942646503448E-003
   3.6811111111111114         -3.3232478890568018E-003
   3.6911111111111112         -3.4011488314718008E-003
   3.7011111111111110         -3.4873327240347862E-003
   3.7111111111111117         -3.5680427681654692E-003
   3.7211111111111115         -3.6294101737439632E-003
   3.7311111111111113         -3.6569219082593918E-003
   3.7411111111111111         -3.6352188326418400E-003
   3.7511111111111108         -3.5484938416630030E-003
   3.7611111111111115         -3.3814939670264721E-003
   3.7711111111111113         -3.1208884902298450E-003
   3.7811111111111111         -2.7566484641283751E-003
   3.7911111111111109         -2.2831324022263288E-003
   3.8011111111111116         -1.6997075872495770E-003
   3.8111111111111113         -1.0108655551448464E-003
   3.8211111111111111         -2.2586504928767681E-004
   3.8311111111111109          6.4206583192571998E-004
   3.8411111111111116          1.5769310994073749E-003
   3.8511111111111114          2.5614865589886904E-003
   3.8611111111111112          3.5788682289421558E-003
   3.8711111111111109          4.6140043996274471E-003
   3.8811111111111116          5.6544500403106213E-003
   3.8911111111111114          6.6904039122164249E-003
   3.9011111111111112          7.7139078639447689E-003
   3.9111111111111110          8.7175173684954643E-003
   3.9211111111111117          9.6929185092449188E-003
   3.9311111111111114          1.0629947297275066E-002
   3.9411111111111112          1.1516284197568893E-002
   3.9511111111111110          1.2337795458734035E-002
   3.9611111111111117          1.3079272583127022E-002
   3.9711111111111115          1.3725226745009422E-002
   3.9811111111111113          1.4260473661124706E-002
   3.9911111111111111          1.4670442789793015E-002
   4.0011111111111113          1.4941303059458733E-002
   4.0111111111111111          1.5060060657560825E-002
   4.0211111111111109          1.5014761127531528E-002
   4.0311111111111106          1.4794833958148956E-002
   4.0411111111111104          1.4391581527888775E-002
   4.0511111111111120          1.3798795640468597E-002
   4.0611111111111118          1.3013541698455811E-002
   4.0711111111111116          1.2037138454616070E-002
   4.0811111111111114          1.0876293294131756E-002
   4.0911111111111111          9.5441835001111031E-003
   4.1011111111111109          8.0611389130353928E-003
   4.1111111111111107          6.4545343630015850E-003
   4.1211111111111105          4.7576404176652431E-003
   4.1311111111111121          3.0074545647948980E-003
   4.1411111111111119          1.2418754631653428E-003
   4.1511111111111116         -5.0320982700213790E-004
   4.1611111111111114         -2.1963168401271105E-003
   4.1711111111111112         -3.8118108641356230E-003
   4.1811111111111110         -5.3302780725061893E-003
   4.1911111111111108         -6.7379721440374851E-003
   4.2011111111111106         -8.0256583169102669E-003
   4.2111111111111121         -9.1872094199061394E-003
   4.2211111111111119         -1.0218249633908272E-002
   4.2311111111111117         -1.1115067638456821E-002
   4.2411111111111115         -1.1873960494995117E-002
   4.2511111111111113         -1.2491132132709026E-002
   4.2611111111111111         -1.2963198125362396E-002
   4.2711111111111109         -1.3288221322000027E-002
   4.2811111111111106         -1.3467011973261833E-002
   4.2911111111111104         -1.3504294678568840E-002
   4.3011111111111120         -1.3409279286861420E-002
   4.3111111111111118         -1.3195345178246498E-002
   4.3211111111111116         -1.2878808192908764E-002
   4.3311111111111114         -1.2477056123316288E-002
   4.3411111111111111         -1.2006565928459167E-002
   4.3511111111111109         -1.1481321416795254E-002
   4.3611111111111107         -1.0911996476352215E-002
   4.3711111111111105         -1.0305991396307945E-002
   4.3811111111111121         -9.6681509166955948E-003
   4.3911111111111119         -9.0018659830093384E-003
   4.4011111111111116         -8.3102174103260040E-003
   4.4111111111111114         -7.5969304889440536E-003
   4.4211111111111112         -6.8669770844280720E-003
   4.4311111111111110         -6.1267483979463577E-003
   4.4411111111111108         -5.3837611339986324E-003
   4.4511111111111106         -4.6459166333079338E-003
   4.4611111111111121         -3.9204251952469349E-003
   4.4711111111111119         -3.2126491423696280E-003
   4.4811111111111117         -2.5251968763768673E-003
   4.4911111111111115         -1.8576100701466203E-003
   4.5011111111111113         -1.2068344512954354E-003
   4.5111111111111111         -5.6841777404770255E-004
   4.5211111111111109          6.1875703977420926E-005
   4.5311111111111106          6.8649405147880316E-004
   4.5411111111111104          1.3050086563453078E-003
   4.5511111111111120          1.9137596245855093E-003