 -0.88888888888888884          0.0000000000000000     
 -0.87888888888888883          0.0000000000000000     
 -0.86888888888888882          0.0000000000000000     
 -0.85888888888888881          2.9387055641673385E-036
 -0.84888888888888880          2.3110075673792166E-033
 -0.83888888888888880          1.5408227606510678E-030
 -0.82888888888888879          4.8168835747543458E-030
 -0.81888888888888878          5.1578769193403127E-029
 -0.80888888888888888          4.6797762458552262E-028
 -0.79888888888888887          2.1621335038936696E-027
 -0.78888888888888886          5.7936702811111470E-027
 -0.77888888888888885          8.3198509594056638E-027
 -0.76888888888888884         -7.9505821074430966E-028
 -0.75888888888888884         -3.3078244306791297E-026
 -0.74888888888888883         -7.0530019753789393E-026
 -0.73888888888888882         -1.8754638005708860E-026
 -0.72888888888888881          2.9383870636982885E-025
 -0.71888888888888880          9.5513099175909436E-025
 -0.70888888888888890          1.5744013962843352E-024
 -0.69888888888888889          8.3020944399862375E-025
 -0.68888888888888888         -3.4175749999408425E-024
 -0.67888888888888888         -1.2494311916192388E-023
 -0.66888888888888887         -2.3226562583332517E-023
 -0.65888888888888886         -2.3568273461647103E-023
 -0.64888888888888885          7.8436747461878240E-024
 -0.63888888888888884          9.0928557111279267E-023
 -0.62888888888888883          2.1705302072232058E-022
 -0.61888888888888882          3.1189210018029972E-022
 -0.60888888888888881          2.1541251820559745E-022
 -0.59888888888888880         -2.7409046620373508E-022
 -0.58888888888888880         -1.2489597241660681E-021
 -0.57888888888888879         -2.4446947379996103E-021
 -0.56888888888888878         -3.0154176547636967E-021
 -0.55888888888888877         -1.5740955241458057E-021
 -0.54888888888888876          3.2244493863404363E-021
 -0.53888888888888875          1.1453752645552266E-020
 -0.52888888888888885          2.0380639771991224E-020
 -0.51888888888888884          2.3571177176597687E-020
 -0.50888888888888884          1.2003280876655206E-020
 -0.49888888888888883         -2.1710332606670216E-020
 -0.48888888888888882         -7.6212111254162744E-020
 -0.47888888888888881         -1.3391643111866656E-019
 -0.46888888888888886         -1.5805413007963504E-019
 -0.45888888888888885         -1.0006748313230922E-019
 -0.44888888888888884          7.9034593675861457E-020
 -0.43888888888888883          3.7586244344160539E-019
 -0.42888888888888882          7.1172806762806938E-019
 -0.41888888888888881          9.1909009797986655E-019
 -0.40888888888888886          7.6910937992571977E-019
 -0.39888888888888885          5.3786537220685519E-020
 -0.38888888888888884         -1.2844062471053623E-018
 -0.37888888888888883         -3.0117472395127102E-018
 -0.36888888888888882         -4.5160314317220446E-018
 -0.35888888888888881         -4.8510180731100944E-018
 -0.34888888888888880         -2.9750671560199650E-018
 -0.33888888888888880          1.8067127978921440E-018
 -0.32888888888888879          9.2750488227427662E-018
 -0.31888888888888878          1.7785048223102588E-017
 -0.30888888888888888          2.4075467268353970E-017
 -0.29888888888888887          2.3682171011225832E-017
 -0.28888888888888886          1.2149269013612410E-017
 -0.27888888888888885         -1.2992555659872458E-017
 -0.26888888888888884         -4.9854956377069228E-017
 -0.25888888888888884         -9.0196329858153773E-017
 -0.24888888888888883         -1.1888066386555723E-016
 -0.23888888888888882         -1.1591698822734304E-016
 -0.22888888888888881         -6.1808411060175022E-017
 -0.21888888888888880          5.4006135811386996E-017
 -0.20888888888888879          2.2325673554233181E-016
 -0.19888888888888878          4.1070782668722785E-016
 -0.18888888888888877          5.5213710317873559E-016
 -0.17888888888888888          5.6275370826050258E-016
 -0.16888888888888887          3.5856191088563176E-016
 -0.15888888888888886         -1.1061208043569346E-016
 -0.14888888888888885         -8.2290923715826105E-016
 -0.13888888888888884         -1.6527348159682087E-015
 -0.12888888888888883         -2.3605154408147836E-015
 -0.11888888888888882         -2.6181822280948314E-015
 -0.10888888888888881         -2.0787406135482208E-015
  -9.8888888888888804E-002    -4.8719974579395828E-016
  -8.8888888888888795E-002     2.1845041119577082E-015
  -7.8888888888888786E-002     5.6111223252410664E-015
  -6.8888888888888777E-002     9.0405037717566049E-015
  -5.8888888888888768E-002     1.1321017162461457E-014
  -4.8888888888888871E-002     1.1070283551612922E-014
  -3.8888888888888862E-002     7.0023510712166788E-015
  -2.8888888888888853E-002    -1.6091651352273420E-015
  -1.8888888888888844E-002    -1.4407999939609548E-014
  -8.8888888888888351E-003    -2.9506911101767272E-014
   1.1111111111111738E-003    -4.3296190742857232E-014
   1.1111111111111183E-002    -5.0704096954054534E-014
   2.1111111111111192E-002    -4.6058327914403827E-014
   3.1111111111111200E-002    -2.4575713981748494E-014
   4.1111111111111209E-002     1.5687763384891230E-014
   5.1111111111111218E-002     7.1831050222487258E-014
   6.1111111111111227E-002     1.3466460477111475E-013
   7.1111111111111125E-002     1.8855332876641095E-013
   8.1111111111111134E-002     2.1317939546874193E-013
   9.1111111111111143E-002     1.8751891857869685E-013
  0.10111111111111115          9.5746815424041509E-014
  0.11111111111111116         -6.5935802553550998E-014
  0.12111111111111117         -2.8323440055995353E-013
  0.13111111111111118         -5.2053240190419459E-013
  0.14111111111111119         -7.2246668283287852E-013
  0.15111111111111120         -8.2151733332702648E-013
  0.16111111111111120         -7.5145954996774789E-013
  0.17111111111111121         -4.6480549444061214E-013
  0.18111111111111122          4.9277520676157052E-014
  0.19111111111111123          7.5111309316353014E-013
  0.20111111111111124          1.5452137182639381E-012
  0.21111111111111125          2.2866649979774722E-012
  0.22111111111111126          2.7998410881413527E-012
  0.23111111111111127          2.9070530704888853E-012
  0.24111111111111128          2.4620403372282995E-012
  0.25111111111111128          1.3817935511084567E-012
  0.26111111111111129         -3.2931380604221683E-013
  0.27111111111111108         -2.5667074802365741E-012
  0.28111111111111109         -5.1241957725600695E-012
  0.29111111111111110         -7.7008139448553337E-012
  0.30111111111111111         -9.9115229912349889E-012
  0.31111111111111112         -1.1299300904654697E-011
  0.32111111111111112         -1.1351392915914804E-011
  0.33111111111111113         -9.5295707089326775E-012
  0.34111111111111114         -5.3300944387324467E-012
  0.35111111111111115          1.6101483210975709E-012
  0.36111111111111116          1.1352699162692215E-011
  0.37111111111111117          2.3451086558767820E-011
  0.38111111111111118          3.6734396774429356E-011
  0.39111111111111119          4.9144899955111399E-011
  0.40111111111111120          5.7715294349280910E-011
  0.41111111111111120          5.8774575484310532E-011
  0.42111111111111121          4.8447575812238242E-011
  0.43111111111111122          2.3457272582683153E-011
  0.44111111111111123         -1.7843693536634397E-011
  0.45111111111111124         -7.4382368320247139E-011
  0.46111111111111125         -1.4147237548112201E-010
  0.47111111111111126         -2.1042438624885307E-010
  0.48111111111111127         -2.6895474736221558E-010
  0.49111111111111128         -3.0259353356321128E-010
  0.50111111111111128         -2.9712776683510356E-010
  0.51111111111111129         -2.4188998026808406E-010
  0.52111111111111108         -1.3345215210680550E-010
  0.53111111111111109          2.0920570831250984E-011
  0.54111111111111110          2.0083014418137424E-010
  0.55111111111111111          3.7208630621066163E-010
  0.56111111111111112          4.8843634692374849E-010
  0.57111111111111112          4.9597453921634838E-010
  0.58111111111111113          3.4013608596339395E-010
  0.59111111111111114         -2.5276053819411892E-011
  0.60111111111111115         -6.2795141309024416E-010
  0.61111111111111116         -1.4669863102056979E-009
  0.62111111111111117         -2.5039192941278543E-009
  0.63111111111111118         -3.6555893867529221E-009
  0.64111111111111119         -4.7889248122601202E-009
  0.65111111111111120         -5.7164344369198261E-009
  0.66111111111111120         -6.1900102821255132E-009
  0.67111111111111121         -5.8887792420136975E-009
  0.68111111111111122         -4.3947920858045109E-009
  0.69111111111111123         -1.1478529238218016E-009
  0.70111111111111124          4.6317412127905300E-009
  0.71111111111111125          1.4067131459682969E-008
  0.72111111111111126          2.8812927155286161E-008
  0.73111111111111127          5.1329632100305389E-008
  0.74111111111111128          8.5271523175833863E-008
  0.75111111111111128          1.3602209492091788E-007
  0.76111111111111129          2.1141693196113920E-007
  0.77111111111111130          3.2270213523588609E-007
  0.78111111111111109          4.8579153144601150E-007
  0.79111111111111110          7.2290129082830390E-007
  0.80111111111111111          1.0646583632478723E-006
  0.81111111111111112          1.5528055428148946E-006
  0.82111111111111112          2.2436502149503212E-006
  0.83111111111111113          3.2124528388521867E-006
  0.84111111111111114          4.5589708861371037E-006
  0.85111111111111115          6.4144205680349842E-006
  0.86111111111111116          8.9501563707017340E-006
  0.87111111111111117          1.2388408322294708E-005
  0.88111111111111118          1.7015414414345287E-005
  0.89111111111111119          2.3197346308734268E-005
  0.90111111111111120          3.1399336876347661E-005
  0.91111111111111120          4.2207931983284652E-005
  0.92111111111111121          5.6357130233664066E-005
  0.93111111111111122          7.4758158007171005E-005
  0.94111111111111123          9.8532735137268901E-005
  0.95111111111111124          1.2904960021842271E-004
  0.96111111111111125          1.6796350246295333E-004
  0.97111111111111126          2.1725553961005062E-004
  0.98111111111111127          2.7927325572818518E-004
  0.99111111111111128          3.5676846164278686E-004
   1.0011111111111113          4.5292972936294973E-004
   1.0111111111111113          5.7140667922794819E-004
   1.0211111111111113          7.1632157778367400E-004
   1.0311111111111111          8.9226441923528910E-004
   1.0411111111111111          1.1042654514312744E-003
   1.0511111111111111          1.3577406061813235E-003
   1.0611111111111111          1.6584041295573115E-003
   1.0711111111111111          2.0121431443840265E-003
   1.0811111111111111          2.4248489644378424E-003
   1.0911111111111111          2.9022039379924536E-003
   1.1011111111111112          3.4494197461754084E-003
   1.1111111111111112          4.0709283202886581E-003
   1.1211111111111114          4.7700279392302036E-003
   1.1311111111111112          5.5484930053353310E-003
   1.1411111111111114          6.4061540178954601E-003
   1.1511111111111112          7.3404619470238686E-003
   1.1611111111111110          8.3460574969649315E-003
   1.1711111111111112          9.4143617898225784E-003
   1.1811111111111110          1.0533215478062630E-002
   1.1911111111111112          1.1686592362821102E-002
   1.2011111111111110          1.2854414060711861E-002
   1.2111111111111112          1.4012497849762440E-002
   1.2211111111111110          1.5132652595639229E-002
   1.2311111111111113          1.6182959079742432E-002
   1.2411111111111111          1.7128242179751396E-002
   1.2511111111111113          1.7930746078491211E-002
   1.2611111111111111          1.8551012501120567E-002
   1.2711111111111113          1.8948962911963463E-002
   1.2811111111111111          1.9085135310888290E-002
   1.2911111111111113          1.8922081217169762E-002
   1.3011111111111111          1.8425848335027695E-002
   1.3111111111111113          1.7567513510584831E-002
   1.3211111111111111          1.6324687749147415E-002
   1.3311111111111114          1.4682947658002377E-002
   1.3411111111111111          1.2637106701731682E-002
   1.3511111111111114          1.0192259214818478E-002
   1.3611111111111112          7.3645426891744137E-003
   1.3711111111111114          4.1815582662820816E-003
   1.3811111111111112          6.8239960819482803E-004
   1.3911111111111114         -3.0827219597995281E-003
   1.4011111111111112         -7.0532816462218761E-003
   1.4111111111111114         -1.1159656569361687E-002
   1.4211111111111112         -1.5324729494750500E-002
   1.4311111111111110         -1.9465832039713860E-002
   1.4411111111111112         -2.3496968671679497E-002
   1.4511111111111110         -2.7331238612532616E-002
   1.4611111111111112         -3.0883373692631721E-002
   1.4711111111111110         -3.4072291105985641E-002
   1.4811111111111113         -3.6823581904172897E-002
   1.4911111111111111         -3.9071794599294662E-002
   1.5011111111111113         -4.0762498974800110E-002
   1.5111111111111111         -4.1853994131088257E-002
   1.5211111111111113         -4.2318612337112427E-002
   1.5311111111111111         -4.2143598198890686E-002
   1.5411111111111113         -4.1331492364406586E-002
   1.5511111111111111         -3.9900064468383789E-002
   1.5611111111111113         -3.7881746888160706E-002
   1.5711111111111111         -3.5322643816471100E-002
   1.5811111111111114         -3.2281123101711273E-002
   1.5911111111111111         -2.8826065361499786E-002
   1.6011111111111114         -2.5034826248884201E-002
   1.6111111111111112         -2.0990982651710510E-002
   1.6211111111111114         -1.6781946644186974E-002
   1.6311111111111112         -1.2496506795287132E-002
   1.6411111111111114         -8.2223983481526375E-003
   1.6511111111111112         -4.0439567528665066E-003
   1.6611111111111114         -3.9941718569025397E-005
   1.6711111111111112          3.7184217944741249E-003
   1.6811111111111110          7.1691190823912621E-003
   1.6911111111111112          1.0260700248181820E-002
   1.7011111111111110          1.2953282333910465E-002
   1.7111111111111112          1.5219172462821007E-002
   1.7211111111111110          1.7043109983205795E-002
   1.7311111111111113          1.8422130495309830E-002
   1.7411111111111111          1.9365049898624420E-002
   1.7511111111111113          1.9891615957021713E-002
   1.7611111111111111          2.0031351596117020E-002
   1.7711111111111113          1.9822129979729652E-002
   1.7811111111111111          1.9308552145957947E-002
   1.7911111111111113          1.8540171906352043E-002
   1.8011111111111111          1.7569627612829208E-002
   1.8111111111111113          1.6450772061944008E-002
   1.8211111111111111          1.5236826613545418E-002
   1.8311111111111114          1.3978658244013786E-002
   1.8411111111111111          1.2723217718303204E-002
   1.8511111111111114          1.1512197554111481E-002
   1.8611111111111112          1.0380938649177551E-002
   1.8711111111111114          9.3576302751898766E-003
   1.8811111111111112          8.4628025069832802E-003
   1.8911111111111114          7.7091325074434280E-003
   1.9011111111111112          7.1015427820384502E-003
   1.9111111111111114          6.6375830210745335E-003
   1.9211111111111112          6.3080671243369579E-003
   1.9311111111111110          6.0979248955845833E-003
   1.9411111111111112          5.9872325509786606E-003
   1.9511111111111110          5.9523703530430794E-003
   1.9611111111111112          5.9672612696886063E-003
   1.9711111111111110          6.0046389698982239E-003
   1.9811111111111113          6.0372981242835522E-003
   1.9911111111111111          6.0392781160771847E-003
   2.0011111111111113          5.9869405813515186E-003
   2.0111111111111111          5.8599049225449562E-003
   2.0211111111111113          5.6418087333440781E-003
   2.0311111111111111          5.3208782337605953E-003
   2.0411111111111113          4.8902914859354496E-003
   2.0511111111111111          4.3483315967023373E-003
   2.0611111111111113          3.6983378231525421E-003
   2.0711111111111111          2.9484627302736044E-003
   2.0811111111111114          2.1112565882503986E-003
   2.0911111111111111          1.2030976358801126E-003
   2.1011111111111114          2.4349635350517929E-004
   2.1111111111111112         -7.4570142896845937E-004
   2.1211111111111114         -1.7411824082955718E-003
   2.1311111111111112         -2.7190735563635826E-003
   2.1411111111111114         -3.6558571737259626E-003
   2.1511111111111112         -4.5292610302567482E-003
   2.1611111111111114         -5.3190845064818859E-003
   2.1711111111111112         -6.0079307295382023E-003
   2.1811111111111114         -6.5818084403872490E-003
   2.1911111111111112         -7.0305741392076015E-003
   2.2011111111111110         -7.3481942526996136E-003
   2.2111111111111112         -7.5328103266656399E-003
   2.2211111111111110         -7.5866091065108776E-003
   2.2311111111111113         -7.5155100785195827E-003
   2.2411111111111111         -7.3286951519548893E-003
   2.2511111111111113         -7.0380186662077904E-003
   2.2611111111111111         -6.6573433578014374E-003
   2.2711111111111113         -6.2018465250730515E-003
   2.2811111111111111         -5.6873457506299019E-003
   2.2911111111111113         -5.1296781748533249E-003
   2.3011111111111111         -4.5441617257893085E-003
   2.3111111111111113         -3.9451532065868378E-003
   2.3211111111111111         -3.3457002136856318E-003
   2.3311111111111114         -2.7572892140597105E-003
   2.3411111111111111         -2.1896651014685631E-003
   2.3511111111111114         -1.6507169930264354E-003
   2.3611111111111112         -1.1464114068076015E-003
   2.3711111111111114         -6.8077183095738292E-004
   2.3811111111111112         -2.5590602308511734E-004
   2.3911111111111114          1.2791113113053143E-004
   2.4011111111111112          4.7208604519255459E-004
   2.4111111111111114          7.7947584213688970E-004
   2.4211111111111112          1.0540747316554189E-003
   2.4311111111111114          1.3006232911720872E-003
   2.4411111111111112          1.5241596847772598E-003
   2.4511111111111110          1.7295433208346367E-003
   2.4611111111111112          1.9209905294701457E-003
   2.4711111111111110          2.1016660612076521E-003
   2.4811111111111113          2.2733723744750023E-003
   2.4911111111111111          2.4363680277019739E-003
   2.5011111111111113          2.5893372949212790E-003
   2.5111111111111111          2.7295118197798729E-003
   2.5211111111111113          2.8529299888759851E-003
   2.5311111111111111          2.9548045713454485E-003
   2.5411111111111113          3.0299574136734009E-003
   2.5511111111111111          3.0732767190784216E-003
   2.5611111111111113          3.0801533721387386E-003
   2.5711111111111111          3.0468632467091084E-003
   2.5811111111111114          2.9708687216043472E-003
   2.5911111111111111          2.8510310221463442E-003
   2.6011111111111114          2.6877326890826225E-003
   2.6111111111111112          2.4829178582876921E-003
   2.6211111111111114          2.2400652524083853E-003
   2.6311111111111112          1.9641064573079348E-003
   2.6411111111111114          1.6613024054095149E-003
   2.6511111111111112          1.3390857493504882E-003
   2.6611111111111114          1.0058692423626781E-003
   2.6711111111111112          6.7082163877785206E-004
   2.6811111111111114          3.4360477002337575E-004
   2.6911111111111112          3.4069551475113258E-005
   2.7011111111111110         -2.4808917078189552E-004
   2.7111111111111112         -4.9371406203135848E-004
   2.7211111111111110         -6.9459050428122282E-004
   2.7311111111111113         -8.4385770605877042E-004
   2.7411111111111111         -9.3640125123783946E-004
   2.7511111111111113         -9.6920051146298647E-004
   2.7611111111111111         -9.4160315347835422E-004
   2.7711111111111113         -8.5550115909427404E-004
   2.7811111111111111         -7.1538711199536920E-004
   2.7911111111111113         -5.2827608305960894E-004
   2.8011111111111111         -3.0348688596859574E-004
   2.8111111111111113         -5.2286133723100647E-005
   2.8211111111111111          2.1259169443510473E-004
   2.8311111111111114          4.7752467799000442E-004
   2.8411111111111111          7.2865263791754842E-004
   2.8511111111111114          9.5255760243162513E-004
   2.8611111111111112          1.1369351996108890E-003
   2.8711111111111114          1.2712177122011781E-003
   2.8811111111111112          1.3471131678670645E-003
   2.8911111111111114          1.3590318849310279E-003
   2.9011111111111112          1.3043810613453388E-003
   2.9111111111111114          1.1837144847959280E-003
   2.9211111111111112          1.0007366072386503E-003
   2.9311111111111114          7.6216401066631079E-004
   2.9411111111111112          4.7745325719006360E-004
   2.9511111111111110          1.5840806008782238E-004
   2.9611111111111112         -1.8132202967535704E-004
   2.9711111111111110         -5.2683753892779350E-004
   2.9811111111111113         -8.6266512516885996E-004
   2.9911111111111111         -1.1734963627532125E-003
   3.0011111111111113         -1.4449667651206255E-003
   3.0111111111111111         -1.6644446877762675E-003
   3.0211111111111113         -1.8217908218502998E-003
   3.0311111111111111         -1.9100422505289316E-003
   3.0411111111111113         -1.9259674008935690E-003
   3.0511111111111111         -1.8704413669183850E-003
   3.0611111111111113         -1.7485935240983963E-003
   3.0711111111111111         -1.5696958871558309E-003
   3.0811111111111114         -1.3467747485265136E-003
   3.0911111111111111         -1.0959536302834749E-003
   3.1011111111111114         -8.3555601304396987E-004
   3.1111111111111112         -5.8502017054706812E-004
   3.1211111111111109         -3.6369485314935446E-004
   3.1311111111111116         -1.8959614681079984E-004
   3.1411111111111114         -7.8209443017840385E-005
   3.1511111111111112         -4.1417089960305020E-005
   3.1611111111111110         -8.6621905211359262E-005
   3.1711111111111117         -2.1612270211335272E-004
   3.1811111111111114         -4.2678078170865774E-004
   3.1911111111111112         -7.0999882882460952E-004
   3.2011111111111110         -1.0520174400880933E-003
   3.2111111111111108         -1.4345187228173018E-003
   3.2211111111111115         -1.8355103675276041E-003
   3.2311111111111113         -2.2304521407932043E-003
   3.2411111111111111         -2.5935685262084007E-003
   3.2511111111111108         -2.8992828447371721E-003
   3.2611111111111115         -3.1236908398568630E-003
   3.2711111111111113         -3.2459865324199200E-003
   3.2811111111111111         -3.2497500069439411E-003
   3.2911111111111109         -3.1240072567015886E-003
   3.3011111111111116         -2.8639833908528090E-003
   3.3111111111111113         -2.4714930914342403E-003
   3.3211111111111111         -1.9549315329641104E-003
   3.3311111111111109         -1.3288623886182904E-003
   3.3411111111111116         -6.1323266709223390E-004
   3.3511111111111114          1.6773182142060250E-004
   3.3611111111111112          9.8686770070344210E-004
   3.3711111111111109          1.8155568977817893E-003
   3.3811111111111116          2.6252479292452335E-003
   3.3911111111111114          3.3889175392687321E-003
   3.4011111111111112          4.0823821909725666E-003
   3.4111111111111110          4.6853870153427124E-003
   3.4211111111111117          5.1824185065925121E-003
   3.4311111111111114          5.5631985887885094E-003
   3.4411111111111112          5.8228489942848682E-003
   3.4511111111111110          5.9617194347083569E-003
   3.4611111111111117          5.9848986566066742E-003
   3.4711111111111115          5.9014484286308289E-003
   3.4811111111111113          5.7234079577028751E-003
   3.4911111111111111          5.4646558128297329E-003
   3.5011111111111108          5.1397127099335194E-003
   3.5111111111111115          4.7626001760363579E-003
   3.5211111111111113          4.3458607979118824E-003
   3.5311111111111111          3.8998492527753115E-003
   3.5411111111111109          3.4323702566325665E-003
   3.5511111111111116          2.9487139545381069E-003
   3.5611111111111113          2.4520840961486101E-003
   3.5711111111111111          1.9443636992946267E-003
   3.5811111111111109          1.4271100517362356E-003
   3.5911111111111116          9.0263097081333399E-004
   3.6011111111111114          3.7497468292713165E-004
   3.6111111111111112         -1.4933255442883819E-004
   3.6211111111111109         -6.6093628993257880E-004
   3.6311111111111116         -1.1477724183350801E-003
   3.6411111111111114         -1.5956676797941327E-003
   3.6511111111111112         -1.9893632270395756E-003
   3.6611111111111110         -2.3138355463743210E-003
   3.6711111111111117         -2.5557444896548986E-003
   3.6811111111111114         -2.7048159390687943E-003
   3.6911111111111112         -2.7549795340746641E-003
   3.7011111111111110         -2.7051165234297514E-003
   3.7111111111111117         -2.5593372993171215E-003
   3.7211111111111115         -2.3267660290002823E-003
   3.7311111111111113         -2.0208880305290222E-003
   3.7411111111111111         -1.6585520934313536E-003
   3.7511111111111108         -1.2587625533342361E-003
   3.7611111111111115         -8.4138882812112570E-004
   3.7711111111111113         -4.2591092642396688E-004
   3.7811111111111111         -3.0284791137091815E-005
   3.7911111111111109          3.3002288546413183E-004
   3.8011111111111116          6.4281158847734332E-004
   3.8111111111111113          8.9973333524540067E-004
   3.8211111111111111          1.0966898407787085E-003
   3.8311111111111109          1.2340297689661384E-003
   3.8411111111111116          1.3165213167667389E-003
   3.8511111111111114          1.3530560536310077E-003
   3.8611111111111112          1.3560432707890868E-003
   3.8711111111111109          1.3404636410996318E-003
   3.8811111111111116          1.3225917937234044E-003
   3.8911111111111114          1.3184437993913889E-003
   3.9011111111111112          1.3420679606497288E-003
   3.9111111111111110          1.4038485242053866E-003
   3.9211111111111117          1.5090238302946091E-003
   3.9311111111111114          1.6566241392865777E-003
   3.9411111111111112          1.8390004988759756E-003
   3.9511111111111110          2.0420488435775042E-003
   3.9611111111111117          2.2461428306996822E-003
   3.9711111111111115          2.4276876356452703E-003
   3.9811111111111113          2.5611205492168665E-003
   3.9911111111111111          2.6211163494735956E-003
   4.0011111111111113          2.5847321376204491E-003
   4.0111111111111111          2.4332492612302303E-003
   4.0211111111111109          2.1535241976380348E-003
   4.0311111111111106          1.7387468833476305E-003
   4.0411111111111104          1.1886078864336014E-003
   4.0511111111111120          5.0895562162622809E-004
   4.0611111111111118         -2.8890481917187572E-004
   4.0711111111111116         -1.1890982277691364E-003
   4.0811111111111114         -2.1720880176872015E-003
   4.0911111111111111         -3.2154903747141361E-003
   4.1011111111111109         -4.2947432957589626E-003
   4.1111111111111107         -5.3836461156606674E-003
   4.1211111111111105         -6.4548440277576447E-003
   4.1311111111111121         -7.4803554452955723E-003
   4.1411111111111119         -8.4322402253746986E-003
   4.1511111111111116         -9.2834690585732460E-003
   4.1611111111111114         -1.0009007528424263E-002
   4.1711111111111112         -1.0587057098746300E-002
   4.1811111111111110         -1.1000350117683411E-002
   4.1911111111111108         -1.1237369850277901E-002
   4.2011111111111106         -1.1293357238173485E-002
   4.2111111111111121         -1.1170986108481884E-002
   4.2211111111111119         -1.0880663059651852E-002
   4.2311111111111117         -1.0440422222018242E-002
   4.2411111111111115         -9.8754791542887688E-003
   4.2511111111111113         -9.2175090685486794E-003
   4.2611111111111111         -8.5037508979439735E-003
   4.2711111111111109         -7.7759949490427971E-003
   4.2811111111111106         -7.0795128121972084E-003
   4.2911111111111104         -6.4619071781635284E-003
   4.3011111111111120         -5.9718545526266098E-003
   4.3111111111111118         -5.6576724164187908E-003
   4.3211111111111116         -5.5656661279499531E-003
   4.3311111111111114         -5.7382341474294662E-003
   4.3411111111111111         -6.2117762863636017E-003
   4.3511111111111109         -7.0145032368600368E-003
   4.3611111111111107         -8.1643154844641685E-003
   4.3711111111111105         -9.6669495105743408E-003
   4.3811111111111121         -1.1514600366353989E-002
   4.3911111111111119         -1.3685189187526703E-002
   4.4011111111111116         -1.6142388805747032E-002
   4.4111111111111114         -1.8836429342627525E-002
   4.4211111111111112         -2.1705614402890205E-002
   4.4311111111111110         -2.4678381159901619E-002
   4.4411111111111108         -2.7675708755850792E-002
   4.4511111111111106         -3.0613638460636139E-002
   4.4611111111111121         -3.3405695110559464E-002
   4.4711111111111119         -3.5965055227279663E-002
   4.4811111111111117         -3.8206394761800766E-002
   4.4911111111111115         -4.0047407150268555E-002
   4.5011111111111113         -4.1410077363252640E-002
   4.5111111111111111         -4.2221836745738983E-002
   4.5211111111111109         -4.2416710406541824E-002
   4.5311111111111106         -4.1936583817005157E-002
   4.5411111111111104         -4.0732648223638535E-002
   4.5511111111111120         -3.8767017424106598E-002