 -0.88888888888888884         -2.0354302470534507E-020
 -0.87888888888888883         -3.6912451451508399E-019
 -0.86888888888888882         -4.7790045561618404E-017
 -0.85888888888888881         -2.0526440578389079E-016
 -0.84888888888888880         -8.0740170502037012E-016
 -0.83888888888888880         -2.5197809283046416E-015
 -0.82888888888888879         -5.3030920177084620E-015
 -0.81888888888888878         -6.7081943163271526E-015
 -0.80888888888888888         -1.9072657813984026E-015
 -0.79888888888888887          1.2469482030589250E-014
 -0.78888888888888886          3.2458343196366257E-014
 -0.77888888888888885          4.4698477503959250E-014
 -0.76888888888888884          3.3035565656733962E-014
 -0.75888888888888884         -8.6727711939697284E-015
 -0.74888888888888883         -6.7524700837328505E-014
 -0.73888888888888882         -1.1541637057969206E-013
 -0.72888888888888881         -1.2449774284412074E-013
 -0.71888888888888880         -8.3196517979954726E-014
 -0.70888888888888890         -3.8619823485019911E-015
 -0.69888888888888889          7.5991201720949919E-014
 -0.68888888888888888          9.5752859851153116E-014
 -0.67888888888888888         -6.3610577681692381E-015
 -0.66888888888888887         -2.1935681352933112E-013
 -0.65888888888888886         -3.4110155021707667E-013
 -0.64888888888888885          6.6990378901673336E-014
 -0.63888888888888884          1.4469421754509382E-012
 -0.62888888888888883          3.6379779397299750E-012
 -0.61888888888888882          5.2028104047252555E-012
 -0.60888888888888881          3.4731479844896107E-012
 -0.59888888888888880         -3.8760388128278311E-012
 -0.58888888888888880         -1.5854709906060194E-011
 -0.57888888888888879         -2.5660029656648931E-011
 -0.56888888888888878         -2.1837536987034945E-011
 -0.55888888888888877          4.6429010809589943E-012
 -0.54888888888888876          4.9237336430252299E-011
 -0.53888888888888875          8.6107856955841555E-011
 -0.52888888888888885          7.4181175091503349E-011
 -0.51888888888888884         -1.7490259240915407E-011
 -0.50888888888888884         -1.7307144606348857E-010
 -0.49888888888888883         -3.0600766365296295E-010
 -0.48888888888888882         -2.7784710643352639E-010
 -0.47888888888888881          2.5653260765645669E-011
 -0.46888888888888886          5.8393689883473598E-010
 -0.45888888888888885          1.1610512551385455E-009
 -0.44888888888888884          1.3351542094142133E-009
 -0.43888888888888883          6.8198785507789239E-010
 -0.42888888888888882         -9.3104413068090253E-010
 -0.41888888888888881         -3.0828566366380983E-009
 -0.40888888888888886         -4.7581361073412154E-009
 -0.39888888888888885         -4.6579629042753368E-009
 -0.38888888888888884         -1.8238111021418035E-009
 -0.37888888888888883          3.6676237602506490E-009
 -0.36888888888888882          1.0305807762733821E-008
 -0.35888888888888881          1.5355382743109658E-008
 -0.34888888888888880          1.5736590697201791E-008
 -0.33888888888888880          9.3059817629637109E-009
 -0.32888888888888879         -3.9778011995394991E-009
 -0.31888888888888878         -2.1521291415638188E-008
 -0.30888888888888888         -3.8455418405192177E-008
 -0.29888888888888887         -4.8763940441176601E-008
 -0.28888888888888886         -4.6779124573959052E-008
 -0.27888888888888885         -2.8630196879930736E-008
 -0.26888888888888884          6.5396239534720735E-009
 -0.25888888888888884          5.5517169528229715E-008
 -0.24888888888888883          1.1005023736743169E-007
 -0.23888888888888882          1.5625160187937581E-007
 -0.22888888888888881          1.7519559492029657E-007
 -0.21888888888888880          1.4578971274659125E-007
 -0.20888888888888879          5.0560686304379487E-008
 -0.19888888888888878         -1.1624431550671943E-007
 -0.18888888888888877         -3.4044222729789908E-007
 -0.17888888888888888         -5.8292926041758619E-007
 -0.16888888888888887         -7.8117818702594377E-007
 -0.15888888888888886         -8.5889337242406327E-007
 -0.14888888888888885         -7.4297292940173065E-007
 -0.13888888888888884         -3.8452421335932740E-007
 -0.12888888888888883          2.2056198645259428E-007
 -0.11888888888888882          1.0157108363273437E-006
 -0.10888888888888881          1.8754618622551789E-006
  -9.8888888888888804E-002     2.6069501473102719E-006
  -8.8888888888888795E-002     2.9630143671965925E-006
  -7.8888888888888786E-002     2.6696609438658925E-006
  -6.8888888888888777E-002     1.4709179367855540E-006
  -5.8888888888888768E-002    -8.0784712963577476E-007
  -4.8888888888888871E-002    -4.1822690945991781E-006
  -3.8888888888888862E-002    -8.4288976722746156E-006
  -2.8888888888888853E-002    -1.3022494385950267E-005
  -1.8888888888888844E-002    -1.7115322407335043E-005
  -8.8888888888888351E-003    -1.9582341337809339E-005
   1.1111111111111738E-003    -1.9149647414451465E-005
   1.1111111111111183E-002    -1.4612794075219426E-005
   2.1111111111111192E-002    -5.1395272748777643E-006
   3.1111111111111200E-002     9.3603493951377459E-006
   4.1111111111111209E-002     2.7825622964883223E-005
   5.1111111111111218E-002     4.7632998757762834E-005
   6.1111111111111227E-002     6.4233332523144782E-005
   7.1111111111111125E-002     7.0890404458623379E-005
   8.1111111111111134E-002     5.8578509197104722E-005
   9.1111111111111143E-002     1.6082633010228164E-005
  0.10111111111111115         -6.9682377215940505E-005
  0.11111111111111116         -2.1315754565875977E-004
  0.12111111111111117         -4.2949803173542023E-004
  0.13111111111111118         -7.3390611214563251E-004
  0.14111111111111119         -1.1410542065277696E-003
  0.15111111111111120         -1.6647024312987924E-003
  0.16111111111111120         -2.3175789974629879E-003
  0.17111111111111121         -3.1115459278225899E-003
  0.18111111111111122         -4.0580159984529018E-003
  0.19111111111111123         -5.1685399375855923E-003
  0.20111111111111124         -6.4554521813988686E-003
  0.21111111111111125         -7.9324254766106606E-003
  0.22111111111111126         -9.6147879958152771E-003
  0.23111111111111127         -1.1519453488290310E-002
  0.24111111111111128         -1.3664347119629383E-002
  0.25111111111111128         -1.6067292541265488E-002
  0.26111111111111129         -1.8744373694062233E-002
  0.27111111111111108         -2.1707892417907715E-002
  0.28111111111111109         -2.4964086711406708E-002
  0.29111111111111110         -2.8510823845863342E-002
  0.30111111111111111         -3.2335415482521057E-002
  0.31111111111111112         -3.6412667483091354E-002
  0.32111111111111112         -4.0703229606151581E-002
  0.33111111111111113         -4.5152243226766586E-002
  0.34111111111111114         -4.9688287079334259E-002
  0.35111111111111115         -5.4222632199525833E-002
  0.36111111111111116         -5.8648940175771713E-002
  0.37111111111111117         -6.2843471765518188E-002
  0.38111111111111118         -6.6665984690189362E-002
  0.39111111111111119         -6.9961488246917725E-002
  0.40111111111111120         -7.2562992572784424E-002
  0.41111111111111120         -7.4295461177825928E-002
  0.42111111111111121         -7.4981033802032471E-002
  0.43111111111111122         -7.4445523321628571E-002
  0.44111111111111123         -7.2526074945926666E-002
  0.45111111111111124         -6.9079771637916565E-002
  0.46111111111111125         -6.3992597162723541E-002
  0.47111111111111126         -5.7188216596841812E-002
  0.48111111111111127         -4.8635881394147873E-002
  0.49111111111111128         -3.8356833159923553E-002
  0.50111111111111128         -2.6428693905472755E-002
  0.51111111111111129         -1.2987543828785419E-002
  0.52111111111111108          1.7724923091009259E-003
  0.53111111111111109          1.7602158710360527E-002
  0.54111111111111110          3.4202415496110916E-002
  0.55111111111111111          5.1232043653726578E-002
  0.56111111111111112          6.8317279219627380E-002
  0.57111111111111112          8.5063077509403229E-002
  0.58111111111111113         0.10106565058231354     
  0.59111111111111114         0.11592561751604080     
  0.60111111111111115         0.12926141917705536     
  0.61111111111111116         0.14072237908840179     
  0.62111111111111117         0.15000107884407043     
  0.63111111111111118         0.15684461593627930     
  0.64111111111111119         0.16106423735618591     
  0.65111111111111120         0.16254296898841858     
  0.66111111111111120         0.16124066710472107     
  0.67111111111111121         0.15719603002071381     
  0.68111111111111122         0.15052527189254761     
  0.69111111111111123         0.14141744375228882     
  0.70111111111111124         0.13012662529945374     
  0.71111111111111125         0.11696155369281769     
  0.72111111111111126         0.10227317363023758     
  0.73111111111111127          8.6440898478031158E-002
  0.74111111111111128          6.9858193397521973E-002
  0.75111111111111128          5.2918203175067902E-002
  0.76111111111111129          3.6000188440084457E-002
  0.77111111111111130          1.9457491114735603E-002
  0.78111111111111109          3.6077413242310286E-003
  0.79111111111111110         -1.1274232529103756E-002
  0.80111111111111111         -2.4960622191429138E-002
  0.81111111111111112         -3.7272192537784576E-002
  0.82111111111111112         -4.8077624291181564E-002
  0.83111111111111113         -5.7291220873594284E-002
  0.84111111111111114         -6.4869597554206848E-002
  0.85111111111111115         -7.0807665586471558E-002
  0.86111111111111116         -7.5134247541427612E-002
  0.87111111111111117         -7.7907532453536987E-002
  0.88111111111111118         -7.9210527241230011E-002
  0.89111111111111119         -7.9146780073642731E-002
  0.90111111111111120         -7.7836491167545319E-002
  0.91111111111111120         -7.5413160026073456E-002
  0.92111111111111121         -7.2020530700683594E-002
  0.93111111111111122         -6.7809574306011200E-002
  0.94111111111111123         -6.2935322523117065E-002
  0.95111111111111124         -5.7553380727767944E-002
  0.96111111111111125         -5.1816392689943314E-002
  0.97111111111111126         -4.5870736241340637E-002
  0.98111111111111127         -3.9853964000940323E-002
  0.99111111111111128         -3.3893093466758728E-002
   1.0011111111111113         -2.8103690594434738E-002
   1.0111111111111113         -2.2589353844523430E-002
   1.0211111111111113         -1.7441172152757645E-002
   1.0311111111111111         -1.2736851349473000E-002
   1.0411111111111111         -8.5394848138093948E-003
   1.0511111111111111         -4.8962165601551533E-003
   1.0611111111111111         -1.8370903562754393E-003
   1.0711111111111111          6.2566681299358606E-004
   1.0811111111111111          2.4978548754006624E-003
   1.0911111111111111          3.8030070718377829E-003
   1.1011111111111112          4.5815529301762581E-003
   1.1111111111111112          4.8892428167164326E-003
   1.1211111111111114          4.7945477999746799E-003
   1.1311111111111112          4.3748333118855953E-003
   1.1411111111111114          3.7114301230758429E-003
   1.1511111111111112          2.8841546736657619E-003
   1.1611111111111110          1.9661593250930309E-003
   1.1711111111111112          1.0200147517025471E-003
   1.1811111111111110          9.5596646133344620E-005
   1.1911111111111112         -7.7019864693284035E-004
   1.2011111111111110         -1.5523937763646245E-003
   1.2111111111111112         -2.2362489253282547E-003
   1.2211111111111110         -2.8155695181339979E-003
   1.2311111111111113         -3.2912746537476778E-003
   1.2411111111111111         -3.6701539065688848E-003
   1.2511111111111113         -3.9636087603867054E-003
   1.2611111111111111         -4.1862828657031059E-003
   1.2711111111111113         -4.3547055684030056E-003
   1.2811111111111111         -4.4862143695354462E-003
   1.2911111111111113         -4.5982869341969490E-003
   1.3011111111111111         -4.7081266529858112E-003
   1.3111111111111113         -4.8320479691028595E-003
   1.3211111111111111         -4.9841566942632198E-003
   1.3311111111111114         -5.1741357892751694E-003
   1.3411111111111111         -5.4044849239289761E-003
   1.3511111111111114         -5.6680515408515930E-003
   1.3611111111111112         -5.9468196704983711E-003
   1.3711111111111114         -6.2125814147293568E-003
   1.3811111111111112         -6.4294673502445221E-003
   1.3911111111111114         -6.5576601773500443E-003
   1.4011111111111112         -6.5573281608521938E-003
   1.4111111111111114         -6.3919927924871445E-003
   1.4211111111111112         -6.0310345143079758E-003
   1.4311111111111110         -5.4515204392373562E-003
   1.4411111111111112         -4.6397242695093155E-003
   1.4511111111111110         -3.5924869589507580E-003
   1.4611111111111112         -2.3181729484349489E-003
   1.4711111111111110         -8.3671463653445244E-004
   1.4811111111111113          8.2165614003315568E-004
   1.4911111111111111          2.6188988704234362E-003
   1.5011111111111113          4.5122317969799042E-003
   1.5111111111111111          6.4568398520350456E-003
   1.5211111111111113          8.4075052291154861E-003
   1.5311111111111111          1.0319088585674763E-002
   1.5411111111111113          1.2146446853876114E-002
   1.5511111111111111          1.3844737783074379E-002
   1.5611111111111113          1.5370780602097511E-002
   1.5711111111111111          1.6685480251908302E-002
   1.5811111111111114          1.7756599932909012E-002
   1.5911111111111111          1.8560886383056641E-002
   1.6011111111111114          1.9084807485342026E-002
   1.6111111111111112          1.9323881715536118E-002
   1.6211111111111114          1.9281264394521713E-002
   1.6311111111111112          1.8966443836688995E-002
   1.6411111111111114          1.8394561484456062E-002
   1.6511111111111112          1.7586214467883110E-002
   1.6611111111111114          1.6567016020417213E-002
   1.6711111111111112          1.5366230159997940E-002
   1.6811111111111110          1.4014308340847492E-002
   1.6911111111111112          1.2539983727037907E-002
   1.7011111111111110          1.0968046262860298E-002
   1.7111111111111112          9.3187829479575157E-003
   1.7211111111111110          7.6093114912509918E-003
   1.7311111111111113          5.8560543693602085E-003
   1.7411111111111111          4.0770559571683407E-003
   1.7511111111111113          2.2929999977350235E-003
   1.7611111111111111          5.2656891057267785E-004
   1.7711111111111113         -1.1992719955742359E-003
   1.7811111111111111         -2.8629784937947989E-003
   1.7911111111111113         -4.4452538713812828E-003
   1.8011111111111111         -5.9289094060659409E-003
   1.8111111111111113         -7.2984583675861359E-003
   1.8211111111111111         -8.5404133424162865E-003
   1.8311111111111114         -9.6447654068470001E-003
   1.8411111111111111         -1.0607220232486725E-002
   1.8511111111111114         -1.1430965736508369E-002
   1.8611111111111112         -1.2126718647778034E-002
   1.8711111111111114         -1.2710524722933769E-002
   1.8811111111111112         -1.3199939392507076E-002
   1.8911111111111114         -1.3610121794044971E-002
   1.9011111111111112         -1.3951399363577366E-002
   1.9111111111111114         -1.4229067601263523E-002
   1.9211111111111112         -1.4444953761994839E-002
   1.9311111111111110         -1.4599432237446308E-002
   1.9411111111111112         -1.4692530035972595E-002
   1.9511111111111110         -1.4723635278642178E-002
   1.9611111111111112         -1.4690367504954338E-002
   1.9711111111111110         -1.4587872661650181E-002
   1.9811111111111113         -1.4409549534320831E-002
   1.9911111111111111         -1.4149279333651066E-002
   2.0011111111111113         -1.3804146088659763E-002
   2.0111111111111111         -1.3376203365623951E-002
   2.0211111111111113         -1.2872322462499142E-002
   2.0311111111111111         -1.2302322313189507E-002
   2.0411111111111113         -1.1676667258143425E-002
   2.0511111111111111         -1.1005303822457790E-002
   2.0611111111111113         -1.0298456996679306E-002
   2.0711111111111111         -9.5688803121447563E-003
   2.0811111111111114         -8.8339289650321007E-003
   2.0911111111111111         -8.1156743690371513E-003
   2.1011111111111114         -7.4382340535521507E-003
   2.1111111111111112         -6.8230158649384975E-003
   2.1211111111111114         -6.2837614677846432E-003
   2.1311111111111112         -5.8234222233295441E-003
   2.1411111111111114         -5.4339123889803886E-003
   2.1511111111111112         -5.0983228720724583E-003
   2.1611111111111114         -4.7940816730260849E-003
   2.1711111111111112         -4.4955201447010040E-003
   2.1811111111111114         -4.1752466931939125E-003
   2.1911111111111112         -3.8049749564379454E-003
   2.2011111111111110         -3.3571086823940277E-003
   2.2111111111111112         -2.8079603798687458E-003
   2.2211111111111110         -2.1422156132757664E-003
   2.2311111111111113         -1.3569832080975175E-003
   2.2411111111111111         -4.6338257379829884E-004
   2.2511111111111113          5.1550666103139520E-004
   2.2611111111111111          1.5498034190386534E-003
   2.2711111111111113          2.6090089231729507E-003
   2.2811111111111111          3.6666647065430880E-003
   2.2911111111111113          4.7018644399940968E-003
   2.3011111111111111          5.6977653875946999E-003
   2.3111111111111113          6.6388244740664959E-003
   2.3211111111111111          7.5089097954332829E-003
   2.3311111111111114          8.2915369421243668E-003
   2.3411111111111111          8.9718531817197800E-003
   2.3511111111111114          9.5387026667594910E-003
   2.3611111111111112          9.9850259721279144E-003
   2.3711111111111114          1.0305956006050110E-002
   2.3811111111111112          1.0495592840015888E-002
   2.3911111111111114          1.0544431395828724E-002
   2.4011111111111112          1.0439181700348854E-002
   2.4111111111111114          1.0165251791477203E-002
   2.4211111111111112          9.7105232998728752E-003
   2.4311111111111114          9.0682106092572212E-003
   2.4411111111111112          8.2371989265084267E-003
   2.4511111111111110          7.2199190035462379E-003
   2.4611111111111112          6.0195336118340492E-003
   2.4711111111111110          4.6388232149183750E-003
   2.4811111111111113          3.0822381377220154E-003
   2.4911111111111111          1.3606427237391472E-003
   2.5011111111111113         -5.0353177357465029E-004
   2.5111111111111111         -2.4735208135098219E-003
   2.5211111111111113         -4.4995471835136414E-003
   2.5311111111111111         -6.5238415263593197E-003
   2.5411111111111113         -8.4871565923094749E-003
   2.5511111111111111         -1.0334090329706669E-002
   2.5611111111111113         -1.2015613727271557E-002
   2.5711111111111111         -1.3489097356796265E-002
   2.5811111111111114         -1.4717634767293930E-002
   2.5911111111111111         -1.5670554712414742E-002
   2.6011111111111114         -1.6325782984495163E-002
   2.6111111111111112         -1.6672916710376740E-002
   2.6211111111111114         -1.6714872792363167E-002
   2.6311111111111112         -1.6466446220874786E-002
   2.6411111111111114         -1.5949832275509834E-002
   2.6511111111111112         -1.5189119614660740E-002
   2.6611111111111114         -1.4206578023731709E-002
   2.6711111111111112         -1.3022708706557751E-002
   2.6811111111111114         -1.1659841053187847E-002
   2.6911111111111112         -1.0146942920982838E-002
   2.7011111111111110         -8.5224695503711700E-003
   2.7111111111111112         -6.8331179209053516E-003
   2.7211111111111110         -5.1286579109728336E-003
   2.7311111111111113         -3.4551965072751045E-003
   2.7411111111111111         -1.8500225851312280E-003
   2.7511111111111113         -3.4011804382316768E-004
   2.7611111111111111          1.0557539062574506E-003
   2.7711111111111113          2.3234165273606777E-003
   2.7811111111111111          3.4506467636674643E-003
   2.7911111111111113          4.4269408099353313E-003
   2.8011111111111111          5.2451081573963165E-003
   2.8111111111111113          5.9027029201388359E-003
   2.8211111111111111          6.4013865776360035E-003
   2.8311111111111114          6.7438934929668903E-003
   2.8411111111111111          6.9302506744861603E-003
   2.8511111111111114          6.9559547118842602E-003
   2.8611111111111112          6.8140476942062378E-003
   2.8711111111111114          6.5008676610887051E-003
   2.8811111111111112          6.0229115188121796E-003
   2.8911111111111114          5.4012257605791092E-003
   2.9011111111111112          4.6707652509212494E-003
   2.9111111111111114          3.8746753707528114E-003
   2.9211111111111112          3.0560591258108616E-003
   2.9311111111111114          2.2509344853460789E-003
   2.9411111111111112          1.4851685846224427E-003
   2.9511111111111110          7.7579775825142860E-004
   2.9611111111111112          1.3477572065312415E-004
   2.9711111111111110         -4.2775177280418575E-004
   2.9811111111111113         -9.0260826982557774E-004
   2.9911111111111111         -1.2830661144107580E-003
   3.0011111111111113         -1.5667433617636561E-003
   3.0111111111111111         -1.7557342071086168E-003
   3.0211111111111113         -1.8541702302172780E-003
   3.0311111111111111         -1.8645093077793717E-003
   3.0411111111111113         -1.7851819284260273E-003
   3.0511111111111111         -1.6118022613227367E-003
   3.0611111111111113         -1.3421053299680352E-003
   3.0711111111111111         -9.8233332391828299E-004
   3.0811111111111114         -5.5152416462078691E-004
   3.0911111111111111         -8.0947320384439081E-005
   3.1011111111111114          3.9158613071776927E-004
   3.1111111111111112          8.3006231579929590E-004
   3.1211111111111109          1.2073924299329519E-003
   3.1311111111111116          1.5082620084285736E-003
   3.1411111111111114          1.7271054675802588E-003
   3.1511111111111112          1.8632557475939393E-003
   3.1611111111111110          1.9165684934705496E-003
   3.1711111111111117          1.8860074924305081E-003
   3.1811111111111114          1.7714254790917039E-003
   3.1911111111111112          1.5765865100547671E-003
   3.2011111111111110          1.3107551494613290E-003
   3.2111111111111108          9.8733289632946253E-004
   3.2211111111111115          6.2023533973842859E-004
   3.2311111111111113          2.2044875368010253E-004
   3.2411111111111111         -2.0471787138376385E-004
   3.2511111111111108         -6.4887752523645759E-004
   3.2611111111111115         -1.1019059456884861E-003
   3.2711111111111113         -1.5465074684470892E-003
   3.2811111111111111         -1.9587185233831406E-003
   3.2911111111111109         -2.3128651082515717E-003
   3.3011111111111116         -2.5888131931424141E-003
   3.3111111111111113         -2.7778493240475655E-003
   3.3211111111111111         -2.8841656167060137E-003
   3.3311111111111109         -2.9213379602879286E-003
   3.3411111111111116         -2.9059385415166616E-003
   3.3511111111111114         -2.8518603648990393E-003
   3.3611111111111112         -2.7682099025696516E-003
   3.3711111111111109         -2.6612670626491308E-003
   3.3811111111111116         -2.5384870823472738E-003
   3.3911111111111114         -2.4114211555570364E-003
   3.4011111111111112         -2.2953557781875134E-003
   3.4111111111111110         -2.2057758178561926E-003
   3.4211111111111117         -2.1539109293371439E-003
   3.4311111111111114         -2.1442235447466373E-003
   3.4411111111111112         -2.1754014305770397E-003
   3.4511111111111110         -2.2440592292696238E-003
   3.4611111111111117         -2.3485284764319658E-003
   3.4711111111111115         -2.4900112766772509E-003
   3.4811111111111113         -2.6701076421886683E-003
   3.4911111111111111         -2.8861879836767912E-003
   3.5011111111111108         -3.1276778317987919E-003
   3.5111111111111115         -3.3759812358766794E-003
   3.5211111111111113         -3.6086412146687508E-003
   3.5311111111111111         -3.8057269994169474E-003
   3.5411111111111109         -3.9549679495394230E-003
   3.5511111111111116         -4.0527740493416786E-003
   3.5611111111111113         -4.1006458923220634E-003
   3.5711111111111111         -4.0991338901221752E-003
   3.5811111111111109         -4.0428843349218369E-003
   3.5911111111111116         -3.9195665158331394E-003
   3.6011111111111114         -3.7131179124116898E-003
   3.6111111111111112         -3.4092548303306103E-003
   3.6211111111111109         -3.0000770930200815E-003
   3.6311111111111116         -2.4854599032551050E-003
   3.6411111111111114         -1.8711284501478076E-003
   3.6511111111111112         -1.1653990950435400E-003
   3.6611111111111110         -3.7718220846727490E-004
   3.6711111111111117          4.8334404709748924E-004
   3.6811111111111114          1.4021432725712657E-003
   3.6911111111111112          2.3592084180563688E-003
   3.7011111111111110          3.3293087035417557E-003
   3.7111111111111117          4.2862398549914360E-003
   3.7211111111111115          5.2088513039052486E-003
   3.7311111111111113          6.0856328345835209E-003
   3.7411111111111111          6.9150771014392376E-003
   3.7511111111111108          7.7012162655591965E-003
   3.7611111111111115          8.4463786333799362E-003
   3.7711111111111113          9.1447867453098297E-003
   3.7811111111111111          9.7801368683576584E-003
   3.7911111111111109          1.0328105650842190E-002
   3.8011111111111116          1.0762132704257965E-002
   3.8111111111111113          1.1059338226914406E-002
   3.8211111111111111          1.1203865520656109E-002
   3.8311111111111109          1.1186902411282063E-002
   3.8411111111111116          1.1004731059074402E-002
   3.8511111111111114          1.0657154954969883E-002
   3.8611111111111112          1.0147880762815475E-002
   3.8711111111111109          9.4865811988711357E-003
   3.8811111111111116          8.6906999349594116E-003
   3.8911111111111114          7.7847787179052830E-003
   3.9011111111111112          6.7964405752718449E-003
   3.9111111111111110          5.7503413408994675E-003
   3.9211111111111117          4.6629677526652813E-003
   3.9311111111111114          3.5410874988883734E-003
   3.9411111111111112          2.3848668206483126E-003
   3.9511111111111110          1.1941930279135704E-003
   3.9611111111111117         -2.4954495529527776E-005
   3.9711111111111115         -1.2571830302476883E-003
   3.9811111111111113         -2.4787203874439001E-003
   3.9911111111111111         -3.6617396399378777E-003
   4.0011111111111113         -4.7793164849281311E-003
   4.0111111111111111         -5.8084744960069656E-003
   4.0211111111111109         -6.7303683608770370E-003
   4.0311111111111106         -7.5286524370312691E-003
   4.0411111111111104         -8.1881871446967125E-003
   4.0511111111111120         -8.6957756429910660E-003
   4.0611111111111118         -9.0429754927754402E-003
   4.0711111111111116         -9.2293396592140198E-003
   4.0811111111111114         -9.2638116329908371E-003
   4.0911111111111111         -9.1629540547728539E-003
   4.1011111111111109         -8.9465798810124397E-003
   4.1111111111111107         -8.6329840123653412E-003
   4.1211111111111105         -8.2363523542881012E-003
   4.1311111111111121         -7.7676684595644474E-003
   4.1411111111111119         -7.2383806109428406E-003
   4.1511111111111116         -6.6644530743360519E-003
   4.1611111111111114         -6.0681826435029507E-003
   4.1711111111111112         -5.4764850065112114E-003
   4.1811111111111110         -4.9163894727826118E-003
   4.1911111111111108         -4.4100172817707062E-003
   4.2011111111111106         -3.9714570157229900E-003
   4.2111111111111121         -3.6066714674234390E-003
   4.2211111111111119         -3.3157353755086660E-003
   4.2311111111111117         -3.0954834073781967E-003
   4.2411111111111115         -2.9407416004687548E-003
   4.2511111111111113         -2.8436046559363604E-003
   4.2611111111111111         -2.7918051928281784E-003
   4.2711111111111109         -2.7680338826030493E-003
   4.2811111111111106         -2.7515850961208344E-003
   4.2911111111111104         -2.7222074568271637E-003
   4.3011111111111120         -2.6645234320312738E-003
   4.3111111111111118         -2.5708093307912350E-003
   4.3211111111111116         -2.4407065939158201E-003
   4.3311111111111114         -2.2781062871217728E-003
   4.3411111111111111         -2.0869893487542868E-003
   4.3511111111111109         -1.8685085233300924E-003
   4.3611111111111107         -1.6207516891881824E-003
   4.3711111111111105         -1.3409822713583708E-003
   4.3811111111111121         -1.0287304176017642E-003
   4.3911111111111119         -6.8772881058976054E-004
   4.4011111111111116         -3.2555079087615013E-004
   4.4111111111111114          4.8689551476854831E-005
   4.4211111111111112          4.2702342034317553E-004
   4.4311111111111110          8.0399506259709597E-004
   4.4411111111111108          1.1759417830035090E-003
   4.4511111111111106          1.5388047322630882E-003
   4.4611111111111121          1.8860356649383903E-003
   4.4711111111111119          2.2080757189542055E-003
   4.4811111111111117          2.4938436690717936E-003
   4.4911111111111115          2.7333677280694246E-003
   4.5011111111111113          2.9199558775871992E-003
   4.5111111111111111          3.0506099574267864E-003
   4.5211111111111109          3.1245206482708454E-003
   4.5311111111111106          3.1407242640852928E-003
   4.5411111111111104          3.0965623445808887E-003
   4.5511111111111120          2.9881123919039965E-003