 -0.88888888888888884          0.0000000000000000     
 -0.87888888888888883          0.0000000000000000     
 -0.86888888888888882          0.0000000000000000     
 -0.85888888888888881          0.0000000000000000     
 -0.84888888888888880          0.0000000000000000     
 -0.83888888888888880          0.0000000000000000     
 -0.82888888888888879          0.0000000000000000     
 -0.81888888888888878          0.0000000000000000     
 -0.80888888888888888          0.0000000000000000     
 -0.79888888888888887          0.0000000000000000     
 -0.78888888888888886          0.0000000000000000     
 -0.77888888888888885         -2.0462467831795463E-038
 -0.76888888888888884          0.0000000000000000     
 -0.75888888888888884          5.4692221678778855E-037
 -0.74888888888888883          6.3641810502974304E-037
 -0.73888888888888882         -2.4791575128010887E-036
 -0.72888888888888881         -1.3303803678253241E-035
 -0.71888888888888880         -2.4720445307644861E-035
 -0.70888888888888890          1.2253679128982886E-035
 -0.69888888888888889          1.7930067880706786E-034
 -0.68888888888888888          4.0676682537934624E-034
 -0.67888888888888888          1.1536703339265621E-034
 -0.66888888888888887         -1.7300077295417928E-033
 -0.65888888888888886         -4.9804105053546865E-033
 -0.64888888888888885         -4.9725361625721157E-033
 -0.63888888888888884          8.4182667938993181E-033
 -0.62888888888888883          4.0799099070642234E-032
 -0.61888888888888882          6.8718171357474318E-032
 -0.60888888888888881          2.0370309113344412E-032
 -0.59888888888888880         -1.8783331201775257E-031
 -0.58888888888888880         -5.1601075186125234E-031
 -0.57888888888888879         -6.2460611733484950E-031
 -0.56888888888888878          1.1192765685930818E-031
 -0.55888888888888877          2.0981836892120996E-030
 -0.54888888888888876          4.5095028986809893E-030
 -0.53888888888888875          4.5162015237688112E-030
 -0.52888888888888885         -1.8069921094173639E-030
 -0.51888888888888884         -1.5769345865772553E-029
 -0.50888888888888884         -3.0677081831940405E-029
 -0.49888888888888883         -2.9416774341192165E-029
 -0.48888888888888882          8.4533774759722916E-030
 -0.47888888888888881          8.7276055250021753E-029
 -0.46888888888888886          1.7149242170858196E-028
 -0.45888888888888885          1.7836744994224754E-028
 -0.44888888888888884          1.1628397873814481E-029
 -0.43888888888888883         -3.5743348282357293E-028
 -0.42888888888888882         -7.9458862087561944E-028
 -0.41888888888888881         -9.6829536850069848E-028
 -0.40888888888888886         -4.5999011903066821E-028
 -0.39888888888888885          9.5458573248807516E-028
 -0.38888888888888884          2.9482183736928416E-027
 -0.37888888888888883          4.4365363975934709E-027
 -0.36888888888888882          3.7989757784315426E-027
 -0.35888888888888881         -3.2374282919454244E-028
 -0.34888888888888880         -7.8212831635862068E-027
 -0.33888888888888880         -1.6062075469146752E-026
 -0.32888888888888879         -1.9834895193003572E-026
 -0.31888888888888878         -1.3000199687936859E-026
 -0.30888888888888888          8.0932745459122386E-027
 -0.29888888888888887          4.0472524149803566E-026
 -0.28888888888888886          7.1838783136381805E-026
 -0.27888888888888885          8.1882301336671202E-026
 -0.26888888888888884          4.9284652047458340E-026
 -0.25888888888888884         -3.6364420052300350E-026
 -0.24888888888888883         -1.6182812171434784E-025
 -0.23888888888888882         -2.8338684171752279E-025
 -0.22888888888888881         -3.3264772933021134E-025
 -0.21888888888888880         -2.3794791123492017E-025
 -0.20888888888888879          4.2588289156949163E-026
 -0.19888888888888878          4.8723278905780438E-025
 -0.18888888888888877          9.8983682867667963E-025
 -0.17888888888888888          1.3620154873031638E-024
 -0.16888888888888887          1.3600532944090397E-024
 -0.15888888888888886          7.3273281086505132E-025
 -0.14888888888888885         -7.0828403925998912E-025
 -0.13888888888888884         -2.9776558693068984E-024
 -0.12888888888888883         -5.7378724852813928E-024
 -0.11888888888888882         -8.0577250530713986E-024
 -0.10888888888888881         -8.2166544930635602E-024
  -9.8888888888888804E-002    -3.8273164538607830E-024
  -8.8888888888888795E-002     7.3280689476481289E-024
  -7.8888888888888786E-002     2.5457398114425121E-023
  -6.8888888888888777E-002     4.6154519225933535E-023
  -5.8888888888888768E-002     5.8252221855695197E-023
  -4.8888888888888871E-002     4.4428968037296715E-023
  -3.8888888888888862E-002    -1.2790514197745679E-023
  -2.8888888888888853E-002    -1.1845732252480656E-022
  -1.8888888888888844E-002    -2.4877058074458628E-022
  -8.8888888888888351E-003    -3.3921084557730822E-022
   1.1111111111111738E-003    -2.9039360840733530E-022
   1.1111111111111183E-002    -4.1702122012550106E-024
   2.1111111111111192E-002     5.4783070340910100E-022
   3.1111111111111200E-002     1.2419806906702395E-021
   4.1111111111111209E-002     1.7511607438203663E-021
   5.1111111111111218E-002     1.5848129252952660E-021
   6.1111111111111227E-002     2.6995039795539038E-022
   7.1111111111111125E-002    -2.3306310551725227E-021
   8.1111111111111134E-002    -5.6584420712683583E-021
   9.1111111111111143E-002    -8.2530241173052080E-021
  0.10111111111111115         -7.9451158278051468E-021
  0.11111111111111116         -2.6296517979006488E-021
  0.12111111111111117          8.4232407621450018E-021
  0.13111111111111118          2.3113196998230340E-020
  0.14111111111111119          3.5664709597313538E-020
  0.15111111111111120          3.7308957246961425E-020
  0.16111111111111120          1.9151000248514203E-020
  0.17111111111111121         -2.2919866148265944E-020
  0.18111111111111122         -8.2655654355494763E-020
  0.19111111111111123         -1.3984811744189018E-019
  0.20111111111111124         -1.6194110347681000E-019
  0.21111111111111125         -1.1332441600401249E-019
  0.22111111111111126          2.7786208466006619E-020
  0.23111111111111127          2.4904009420195260E-019
  0.24111111111111128          4.8868615668108188E-019
  0.25111111111111128          6.3631411457918642E-019
  0.26111111111111129          5.5889104321998872E-019
  0.27111111111111108          1.5401080662199048E-019
  0.28111111111111109         -5.8033916441924103E-019
  0.29111111111111110         -1.4846785641257557E-018
  0.30111111111111111         -2.2209847009934015E-018
  0.31111111111111112         -2.3334771283975505E-018
  0.32111111111111112         -1.4017980652776628E-018
  0.33111111111111113          7.3602975514547650E-019
  0.34111111111111114          3.7602104498430478E-018
  0.35111111111111115          6.7531616642967155E-018
  0.36111111111111116          8.3054558328489339E-018
  0.37111111111111117          6.9127843614622983E-018
  0.38111111111111118          1.6296164272742612E-018
  0.39111111111111119         -7.1962198663051247E-018
  0.40111111111111120         -1.7413900554056170E-017
  0.41111111111111120         -2.5140528481464997E-017
  0.42111111111111121         -2.5672195511461005E-017
  0.43111111111111122         -1.5226568662308722E-017
  0.44111111111111123          6.8883606131057514E-018
  0.45111111111111124          3.6481857930752975E-017
  0.46111111111111125          6.4074866086235617E-017
  0.47111111111111126          7.6721253277199533E-017
  0.48111111111111127          6.2249860809482322E-017
  0.49111111111111128          1.5083873389198425E-017
  0.50111111111111128         -5.8325927741767573E-017
  0.51111111111111129         -1.3713083574709838E-016
  0.52111111111111108         -1.8924079235310557E-016
  0.53111111111111109         -1.8101271430347730E-016
  0.54111111111111110         -9.1890230316539863E-017
  0.55111111111111111          7.0598502087751425E-017
  0.56111111111111112          2.6230331328441975E-016
  0.57111111111111112          4.0724192668574086E-016
  0.58111111111111113          4.1944878318641860E-016
  0.59111111111111114          2.3931131861525102E-016
  0.60111111111111115         -1.2615576367507541E-016
  0.61111111111111116         -5.7636060434387328E-016
  0.62111111111111117         -9.2252994675514179E-016
  0.63111111111111118         -9.3817729226888889E-016
  0.64111111111111119         -4.5220955589671198E-016
  0.65111111111111120          5.3894191804728969E-016
  0.66111111111111120          1.7840654744949750E-015
  0.67111111111111121          2.7684022507409606E-015
  0.68111111111111122          2.8267492682796259E-015
  0.69111111111111123          1.3868598559127932E-015
  0.70111111111111124         -1.7040634243850432E-015
  0.71111111111111125         -5.8782146833999231E-015
  0.72111111111111126         -9.7221298191369800E-015
  0.73111111111111127         -1.1174356795776164E-014
  0.74111111111111128         -8.1217821910114368E-015
  0.75111111111111128          6.6738297661405720E-016
  0.76111111111111129          1.4513379308577455E-014
  0.77111111111111130          3.0096612051513927E-014
  0.78111111111111109          4.1496923356299648E-014
  0.79111111111111110          4.1367981224805020E-014
  0.80111111111111111          2.3316613058182133E-014
  0.81111111111111112         -1.4909348576694001E-014
  0.82111111111111112         -6.8343015979539096E-014
  0.83111111111111113         -1.2314007777868008E-013
  0.84111111111111114         -1.5769593205046395E-013
  0.85111111111111115         -1.4742178831850250E-013
  0.86111111111111116         -7.3029025860447960E-014
  0.87111111111111117          6.9269947850642000E-014
  0.88111111111111118          2.5870335062551375E-013
  0.89111111111111119          4.4602944384783405E-013
  0.90111111111111120          5.5862118316513110E-013
  0.91111111111111120          5.1672294915094952E-013
  0.92111111111111121          2.5985867646051430E-013
  0.93111111111111122         -2.2181364275723758E-013
  0.94111111111111123         -8.6045775539445035E-013
  0.95111111111111124         -1.4994876000595792E-012
  0.96111111111111125         -1.9093641598355582E-012
  0.97111111111111126         -1.8362217128753411E-012
  0.98111111111111127         -1.0802651091365578E-012
  0.99111111111111128          4.1070274893646730E-013
   1.0011111111111113          2.4584197524935014E-012
   1.0111111111111113          4.6145483267867604E-012
   1.0211111111111113          6.1953276710158267E-012
   1.0311111111111111          6.4090633841717981E-012
   1.0411111111111111          4.5716768044823386E-012
   1.0511111111111111          3.7501948703562438E-013
   1.0611111111111111         -5.8578593364888576E-012
   1.0711111111111111         -1.3016896588391447E-011
   1.0811111111111111         -1.9235918413684772E-011
   1.0911111111111111         -2.2171355029687589E-011
   1.1011111111111112         -1.9535659548375328E-011
   1.1111111111111112         -9.8172121473782958E-012
   1.1211111111111114          6.9617428141710569E-012
   1.1311111111111112          2.8660638098920721E-011
   1.1411111111111114          5.0843017296298143E-011
   1.1511111111111112          6.7200862929883698E-011
   1.1611111111111110          7.0669164964343167E-011
   1.1711111111111112          5.5153763500737085E-011
   1.1811111111111110          1.7600107135584686E-011
   1.1911111111111112         -4.0049644156603392E-011
   1.2011111111111110         -1.0957568186142908E-010
   1.2111111111111112         -1.7643253524823876E-010
   1.2211111111111110         -2.2133359034448574E-010
   1.2311111111111113         -2.2356023976488615E-010
   1.2411111111111111         -1.6567061611461043E-010
   1.2511111111111113         -3.8834029741918741E-011
   1.2611111111111111          1.5235673833657870E-010
   1.2711111111111113          3.8693079296159283E-010
   1.2811111111111111          6.2768851227801292E-010
   1.2911111111111113          8.2528361922129534E-010
   1.3011111111111111          9.2633278825360321E-010
   1.3111111111111113          8.8469725989526182E-010
   1.3211111111111111          6.7405664383457520E-010
   1.3311111111111114          2.9899541176270361E-010
   1.3411111111111111         -1.9877295642789505E-010
   1.3511111111111114         -7.4254802306938927E-010
   1.3611111111111112         -1.2342893374039932E-009
   1.3711111111111114         -1.5820658116894037E-009
   1.3811111111111112         -1.7425705323148577E-009
   1.3911111111111114         -1.7790552364616019E-009
   1.4011111111111112         -1.9347010660197839E-009
   1.4111111111111114         -2.7221394027776569E-009
   1.4211111111111112         -5.0322799260982265E-009
   1.4311111111111110         -1.0269650907446248E-008
   1.4411111111111112         -2.0528204913716763E-008
   1.4511111111111110         -3.8830780368925844E-008
   1.4611111111111112         -6.9468718777443428E-008
   1.4711111111111110         -1.1849284931031434E-007
   1.4811111111111113         -1.9442785514911520E-007
   1.4911111111111111         -3.0930365824133332E-007
   1.5011111111111113         -4.8012753950388287E-007
   1.5111111111111111         -7.3095128527711495E-007
   1.5211111111111113         -1.0957287486235145E-006
   1.5311111111111111         -1.6222016938627348E-006
   1.5411111111111113         -2.3771162886987440E-006
   1.5511111111111111         -3.4531287838035496E-006
   1.5611111111111113         -4.9778532229538541E-006
   1.5711111111111111         -7.1255849434237462E-006
   1.5811111111111114         -1.0132367606274784E-005
   1.5911111111111111         -1.4315157386590727E-005
   1.6011111111111114         -2.0096036678296514E-005
   1.6111111111111112         -2.8032503905706108E-005
   1.6211111111111114         -3.8855025195516646E-005
   1.6311111111111112         -5.3513220336753875E-005
   1.6411111111111114         -7.3232055001426488E-005
   1.6511111111111112         -9.9579534435179085E-005
   1.6611111111111114         -1.3454703730531037E-004
   1.6711111111111112         -1.8064380856230855E-004
   1.6811111111111110         -2.4100586597342044E-004
   1.6911111111111112         -3.1951969140209258E-004
   1.7011111111111110         -4.2096016113646328E-004
   1.7111111111111112         -5.5114051792770624E-004
   1.7211111111111110         -7.1707123424857855E-004
   1.7311111111111113         -9.2712225159630179E-004
   1.7411111111111111         -1.1911819456145167E-003
   1.7511111111111113         -1.5208027325570583E-003
   1.7611111111111111         -1.9293213263154030E-003
   1.7711111111111113         -2.4319402873516083E-003
   1.7811111111111111         -3.0457507818937302E-003
   1.7911111111111113         -3.7896805442869663E-003
   1.8011111111111111         -4.6843453310430050E-003
   1.8111111111111113         -5.7517797686159611E-003
   1.8211111111111111         -7.0150317624211311E-003
   1.8311111111111114         -8.4975929930806160E-003
   1.8411111111111111         -1.0222659446299076E-002
   1.8511111111111114         -1.2212195433676243E-002
   1.8611111111111112         -1.4485820196568966E-002
   1.8711111111111114         -1.7059497535228729E-002
   1.8811111111111112         -1.9944066181778908E-002
   1.8911111111111114         -2.3143621161580086E-002
   1.9011111111111112         -2.6653811335563660E-002
   1.9111111111111114         -3.0460095033049583E-002
   1.9211111111111112         -3.4536041319370270E-002
   1.9311111111111110         -3.8841754198074341E-002
   1.9411111111111112         -4.3322507292032242E-002
   1.9511111111111110         -4.7907754778862000E-002
   1.9611111111111112         -5.2510548382997513E-002
   1.9711111111111110         -5.7027533650398254E-002
   1.9811111111111113         -6.1339594423770905E-002
   1.9911111111111111         -6.5313234925270081E-002
   2.0011111111111113         -6.8802766501903534E-002
   2.0111111111111111         -7.1653366088867188E-002
   2.0211111111111113         -7.3704920709133148E-002
   2.0311111111111111         -7.4796684086322784E-002
   2.0411111111111113         -7.4772596359252930E-002
   2.0511111111111111         -7.3487140238285065E-002
   2.0611111111111113         -7.0811592042446136E-002
   2.0711111111111111         -6.6640369594097137E-002
   2.0811111111111114         -6.0897253453731537E-002
   2.0911111111111111         -5.3541161119937897E-002
   2.1011111111111114         -4.4571183621883392E-002
   2.1111111111111112         -3.4030605107545853E-002
   2.1211111111111114         -2.2009590640664101E-002
   2.1311111111111112         -8.6463699117302895E-003
   2.1411111111111114          5.8733285404741764E-003
   2.1511111111111112          2.1318674087524414E-002
   2.1611111111111114          3.7418015301227570E-002
   2.1711111111111112          5.3864996880292892E-002
   2.1811111111111114          7.0326358079910278E-002
   2.1911111111111112          8.6451180279254913E-002
   2.2011111111111110         0.10188124328851700     
   2.2111111111111112         0.11626211553812027     
   2.2211111111111110         0.12925459444522858     
   2.2311111111111113         0.14054590463638306     
   2.2411111111111111         0.14986038208007812     
   2.2511111111111113         0.15696886181831360     
   2.2611111111111111         0.16169670224189758     
   2.2711111111111113         0.16392979025840759     
   2.2811111111111111         0.16361844539642334     
   2.2911111111111113         0.16077902913093567     
   2.3011111111111111         0.15549303591251373     
   2.3111111111111113         0.14790390431880951     
   2.3211111111111111         0.13821160793304443     
   2.3311111111111114         0.12666533887386322     
   2.3411111111111111         0.11355455219745636     
   2.3511111111111114          9.9198907613754272E-002
   2.3611111111111112          8.3937384188175201E-002
   2.3711111111111114          6.8117201328277588E-002
   2.3811111111111112          5.2082892507314682E-002
   2.3911111111111114          3.6166079342365265E-002
   2.4011111111111112          2.0676266402006149E-002
   2.4111111111111114          5.8930027298629284E-003
   2.4211111111111112         -7.9403677955269814E-003
   2.4311111111111114         -2.0621236413717270E-002
   2.4411111111111112         -3.1990479677915573E-002
   2.4511111111111110         -4.1933465749025345E-002
   2.4611111111111112         -5.0379417836666107E-002
   2.4711111111111110         -5.7299301028251648E-002
   2.4811111111111113         -6.2702484428882599E-002
   2.4911111111111111         -6.6632434725761414E-002
   2.5011111111111113         -6.9161742925643921E-002
   2.5111111111111111         -7.0386737585067749E-002
   2.5211111111111113         -7.0422045886516571E-002
   2.5311111111111111         -6.9395206868648529E-002
   2.5411111111111113         -6.7441634833812714E-002
   2.5511111111111111         -6.4700029790401459E-002
   2.5611111111111113         -6.1308339238166809E-002
   2.5711111111111111         -5.7400409132242203E-002
   2.5811111111111114         -5.3103297948837280E-002
   2.5911111111111111         -4.8535279929637909E-002
   2.6011111111111114         -4.3804507702589035E-002
   2.6111111111111112         -3.9008215069770813E-002
   2.6211111111111114         -3.4232418984174728E-002
   2.6311111111111112         -2.9552059248089790E-002
   2.6411111111111114         -2.5031452998518944E-002
   2.6511111111111112         -2.0725013688206673E-002
   2.6611111111111114         -1.6678169369697571E-002
   2.6711111111111112         -1.2928374111652374E-002
   2.6811111111111114         -9.5061361789703369E-003
   2.6911111111111112         -6.4359819516539574E-003
   2.7011111111111110         -3.7372859660536051E-003
   2.7111111111111112         -1.4249306404963136E-003
   2.7211111111111110          4.9023132305592299E-004
   2.7311111111111113          2.0011228043586016E-003
   2.7411111111111111          3.1043982598930597E-003
   2.7511111111111113          3.8005956448614597E-003
   2.7611111111111111          4.0944665670394897E-003
   2.7711111111111113          3.9954250678420067E-003
   2.7811111111111111          3.5180558916181326E-003
   2.7911111111111113          2.6825931854546070E-003
   2.8011111111111111          1.5152851119637489E-003
   2.8111111111111113          4.8575795517535880E-005
   2.8211111111111111         -1.6789450310170650E-003
   2.8311111111111114         -3.6228538956493139E-003
   2.8411111111111111         -5.7334732264280319E-003
   2.8511111111111114         -7.9567171633243561E-003
   2.8611111111111112         -1.0235187597572803E-002
   2.8711111111111114         -1.2509490363299847E-002
   2.8811111111111112         -1.4719735831022263E-002
   2.8911111111111114         -1.6807148233056068E-002
   2.9011111111111112         -1.8715718761086464E-002
   2.9111111111111114         -2.0393818616867065E-002
   2.9211111111111112         -2.1795712411403656E-002
   2.9311111111111114         -2.2882908582687378E-002
   2.9411111111111112         -2.3625306785106659E-002
   2.9511111111111110         -2.4002112448215485E-002
   2.9611111111111112         -2.4002466350793839E-002
   2.9711111111111110         -2.3625791072845459E-002
   2.9811111111111113         -2.2881779819726944E-002
   2.9911111111111111         -2.1790048107504845E-002
   3.0011111111111113         -2.0379431545734406E-002
   3.0111111111111111         -1.8686968833208084E-002
   3.0211111111111113         -1.6756590455770493E-002
   3.0311111111111111         -1.4637592248618603E-002
   3.0411111111111113         -1.2382942251861095E-002
   3.0511111111111111         -1.0047466494143009E-002
   3.0611111111111113         -7.6859770342707634E-003
   3.0711111111111111         -5.3514204919338226E-003
   3.0811111111111114         -3.0931131914258003E-003
   3.0911111111111111         -9.5515343127772212E-004
   3.1011111111111114          1.0249174665659666E-003
   3.1111111111111112          2.8171485755592585E-003
   3.1211111111111109          4.3998714536428452E-003
   3.1311111111111116          5.7600345462560654E-003
   3.1411111111111114          6.8931728601455688E-003
   3.1511111111111112          7.8030154109001160E-003
   3.1611111111111110          8.5007399320602417E-003
   3.1711111111111117          9.0038934722542763E-003
   3.1811111111111114          9.3350270763039589E-003
   3.1911111111111112          9.5201255753636360E-003
   3.2011111111111110          9.5869163051247597E-003
   3.2111111111111108          9.5631750300526619E-003
   3.2211111111111115          9.4751287251710892E-003
   3.2311111111111113          9.3460511416196823E-003
   3.2411111111111111          9.1951284557580948E-003
   3.2511111111111108          9.0366518124938011E-003
   3.2611111111111115          8.8795823976397514E-003
   3.2711111111111113          8.7275160476565361E-003
   3.2811111111111111          8.5790352895855904E-003
   3.2911111111111109          8.4284190088510513E-003
   3.3011111111111116          8.2666380330920219E-003
   3.3111111111111113          8.0825285986065865E-003
   3.3211111111111111          7.8640384599566460E-003
   3.3311111111111109          7.5994399376213551E-003
   3.3411111111111116          7.2784172371029854E-003
   3.3511111111111114          6.8929684348404408E-003
   3.3611111111111112          6.4380769617855549E-003
   3.3711111111111109          5.9121344238519669E-003
   3.3811111111111116          5.3171012550592422E-003
   3.3911111111111114          4.6584173105657101E-003
   3.4011111111111112          3.9446847513318062E-003
   3.4111111111111110          3.1871702522039413E-003
   3.4211111111111117          2.3991891648620367E-003
   3.4311111111111114          1.5954353148117661E-003
   3.4411111111111112          7.9131813254207373E-004
   3.4511111111111110          2.3461980163119733E-006
   3.4611111111111117         -7.5641716830432415E-004
   3.4711111111111115         -1.4708158560097218E-003
   3.4811111111111113         -2.1279742941260338E-003
   3.4911111111111111         -2.7165799401700497E-003
   3.5011111111111108         -3.2270685769617558E-003
   3.5111111111111115         -3.6517197731882334E-003
   3.5211111111111113         -3.9846743457019329E-003
   3.5311111111111111         -4.2218989692628384E-003
   3.5411111111111109         -4.3611275032162666E-003
   3.5511111111111116         -4.4017974287271500E-003
   3.5611111111111113         -4.3449932709336281E-003
   3.5711111111111111         -4.1933883912861347E-003
   3.5811111111111109         -3.9511718787252903E-003
   3.5911111111111116         -3.6239444743841887E-003
   3.6011111111111114         -3.2185842283070087E-003
   3.6111111111111112         -2.7430842164903879E-003
   3.6211111111111109         -2.2063804790377617E-003
   3.6311111111111116         -1.6181884566321969E-003
   3.6411111111111114         -9.8886410705745220E-004
   3.6511111111111112         -3.2930329325608909E-004
   3.6611111111111110          3.4910594695247710E-004
   3.6711111111111117          1.0344659676775336E-003
   3.6811111111111114          1.7142747528851032E-003
   3.6911111111111112          2.3752525448799133E-003
   3.7011111111111110          3.0031057540327311E-003
   3.7111111111111117          3.5822626668959856E-003
   3.7211111111111115          4.0956339798867702E-003
   3.7311111111111113          4.5244493521749973E-003
   3.7411111111111111          4.8482073470950127E-003
   3.7511111111111108          5.0447531975805759E-003
   3.7611111111111115          5.0904555246233940E-003
   3.7711111111111113          4.9604335799813271E-003
   3.7811111111111111          4.6287607401609421E-003
   3.7911111111111109          4.0685674175620079E-003
   3.8011111111111116          3.2519679516553879E-003
   3.8111111111111113          2.1497525740414858E-003
   3.8211111111111111          7.3079729918390512E-004
   3.8311111111111109         -1.0388073278591037E-003
   3.8411111111111116         -3.1968813855201006E-003
   3.8511111111111114         -5.7864594273269176E-003
   3.8611111111111112         -8.8571449741721153E-003
   3.8711111111111109         -1.2466369196772575E-002
   3.8811111111111116         -1.6680391505360603E-002
   3.8911111111111114         -2.1574888378381729E-002
   3.9011111111111112         -2.7235032990574837E-002
   3.9111111111111110         -3.3754963427782059E-002
   3.9211111111111117         -4.1236665099859238E-002
   3.9311111111111114         -4.9788203090429306E-002
   3.9411111111111112         -5.9521410614252090E-002
   3.9511111111111110         -7.0549003779888153E-002
   3.9611111111111117         -8.2981243729591370E-002
   3.9711111111111115         -9.6922226250171661E-002
   3.9811111111111113        -0.11246573179960251     
   3.9911111111111111        -0.12969082593917847     
   4.0011111111111113        -0.14865723252296448     
   4.0111111111111111        -0.16940040886402130     
   4.0211111111111109        -0.19192661345005035     
   4.0311111111111106        -0.21620766818523407     
   4.0411111111111104        -0.24217586219310760     
   4.0511111111111120        -0.26971903443336487     
   4.0611111111111118        -0.29867583513259888     
   4.0711111111111116        -0.32883149385452271     
   4.0811111111111114        -0.35991457104682922     
   4.0911111111111111        -0.39159438014030457     
   4.1011111111111109        -0.42347976565361023     
   4.1111111111111107        -0.45511949062347412     
   4.1211111111111105        -0.48600393533706665     
   4.1311111111111121        -0.51556903123855591     
   4.1411111111111119        -0.54320186376571655     
   4.1511111111111116        -0.56824862957000732     
   4.1611111111111114        -0.59002447128295898     
   4.1711111111111112        -0.60782563686370850     
   4.1811111111111110        -0.62094324827194214     
   4.1911111111111108        -0.62867933511734009     
   4.2011111111111106        -0.63036400079727173     
   4.2111111111111121        -0.62537372112274170     
   4.2211111111111119        -0.61315017938613892     
   4.2311111111111117        -0.59321910142898560     
   4.2411111111111115        -0.56520861387252808     
   4.2511111111111113        -0.52886623144149780     
   4.2611111111111111        -0.48407447338104248     
   4.2711111111111109        -0.43086358904838562     
   4.2811111111111106        -0.36942160129547119     
   4.2911111111111104        -0.30010047554969788     
   4.3011111111111120        -0.22341860830783844     
   4.3111111111111118        -0.14005927741527557     
   4.3211111111111116         -5.0864744931459427E-002
   4.3311111111111114          4.3173957616090775E-002
   4.3411111111111111         0.14093147218227386     
   4.3511111111111109         0.24116662144660950     
   4.3611111111111107         0.34254452586174011     
   4.3711111111111105         0.44366195797920227     
   4.3811111111111121         0.54307514429092407     
   4.3911111111111119         0.63932943344116211     
   4.4011111111111116         0.73099011182785034     
   4.4111111111111114         0.81667321920394897     
   4.4211111111111112         0.89507579803466797     
   4.4311111111111110         0.96500468254089355     
   4.4411111111111108          1.0254029035568237     
   4.4511111111111106          1.0753731727600098     
   4.4611111111111121          1.1141973733901978     
   4.4711111111111119          1.1413518190383911     
   4.4811111111111117          1.1565177440643311     
   4.4911111111111115          1.1595869064331055     
   4.5011111111111113          1.1506623029708862     
   4.5111111111111111          1.1300537586212158     
   4.5211111111111109          1.0982688665390015     
   4.5311111111111106          1.0559989213943481     
   4.5411111111111104          1.0041015148162842     
   4.5511111111111120         0.94357925653457642     