 -0.88888888888888884          2.0544345969868335E-024
 -0.87888888888888883          6.4803158839833321E-021
 -0.86888888888888882          1.0183490314504508E-019
 -0.85888888888888881          2.0155273057007960E-018
 -0.84888888888888880          9.9016737055180244E-018
 -0.83888888888888880          3.3311655145918994E-017
 -0.82888888888888879          9.5380561924599216E-017
 -0.81888888888888878          2.3346065029032875E-016
 -0.80888888888888888          4.6408903416327594E-016
 -0.79888888888888887          7.0358982346091590E-016
 -0.78888888888888886          6.9892320131713674E-016
 -0.77888888888888885          8.1654730504033201E-017
 -0.76888888888888884         -1.3709594593060538E-015
 -0.75888888888888884         -3.3376435431631615E-015
 -0.74888888888888883         -4.6953289373945564E-015
 -0.73888888888888882         -3.7772134087231488E-015
 -0.72888888888888881          6.5017211415879708E-016
 -0.71888888888888880          7.9602640193983561E-015
 -0.70888888888888890          1.4653575119809303E-014
 -0.69888888888888889          1.4945937011883598E-014
 -0.68888888888888888          3.7142941073352049E-015
 -0.67888888888888888         -1.8891741740845874E-014
 -0.66888888888888887         -4.3888456508368173E-014
 -0.65888888888888886         -5.4814791892792911E-014
 -0.64888888888888885         -3.6214853002276143E-014
 -0.63888888888888884          1.3777422873894295E-014
 -0.62888888888888883          7.6114326430162804E-014
 -0.61888888888888882          1.1963943290921319E-013
 -0.60888888888888881          1.2769786042390180E-013
 -0.59888888888888880          1.2527057570519556E-013
 -0.58888888888888880          1.7328373707724970E-013
 -0.57888888888888879          3.0407794338049854E-013
 -0.56888888888888878          4.1554593425106867E-013
 -0.55888888888888877          2.0641141248479988E-013
 -0.54888888888888876         -7.2752882277621334E-013
 -0.53888888888888875         -2.5675548926545888E-012
 -0.52888888888888885         -4.8104844760366028E-012
 -0.51888888888888884         -5.9756661424659185E-012
 -0.50888888888888884         -3.8911300397070914E-012
 -0.49888888888888883          3.1929708443206861E-012
 -0.48888888888888882          1.4894920366548270E-011
 -0.47888888888888881          2.7247913994554729E-011
 -0.46888888888888886          3.2730991528229225E-011
 -0.45888888888888885          2.2733932791840772E-011
 -0.44888888888888884         -7.6802357876215588E-012
 -0.43888888888888883         -5.4412765959632736E-011
 -0.42888888888888882         -1.0131174371652563E-010
 -0.41888888888888881         -1.2247447500612907E-010
 -0.40888888888888886         -9.1165595905717822E-011
 -0.39888888888888885          6.3981489377418210E-012
 -0.38888888888888884          1.5736083269768386E-010
 -0.37888888888888883          3.1540942080354739E-010
 -0.36888888888888882          4.0678505008884258E-010
 -0.35888888888888881          3.5144745447190928E-010
 -0.34888888888888880          9.6200269972257502E-011
 -0.33888888888888880         -3.4911420976335705E-010
 -0.32888888888888879         -8.8532298159194056E-010
 -0.31888888888888878         -1.3215688543510851E-009
 -0.30888888888888888         -1.4080668853111433E-009
 -0.29888888888888887         -9.0780777339816154E-010
 -0.28888888888888886          3.0082233926087554E-010
 -0.27888888888888885          2.1137813721594512E-009
 -0.26888888888888884          4.1219623270194461E-009
 -0.25888888888888884          5.6100639689304899E-009
 -0.24888888888888883          5.6759019706476010E-009
 -0.23888888888888882          3.4864773290621542E-009
 -0.22888888888888881         -1.3596225256762295E-009
 -0.21888888888888880         -8.4520772603013938E-009
 -0.20888888888888879         -1.6309790851209982E-008
 -0.19888888888888878         -2.2399486709900884E-008
 -0.18888888888888877         -2.3552782835167818E-008
 -0.17888888888888888         -1.6806358971166446E-008
 -0.16888888888888887         -5.4702686824725788E-010
 -0.15888888888888886          2.4310608637279074E-008
 -0.14888888888888885          5.3502006380767853E-008
 -0.13888888888888884          7.9360852112131397E-008
 -0.12888888888888883          9.1853742389957915E-008
 -0.11888888888888882          8.0785930833826569E-008
 -0.10888888888888881          3.8927240098018956E-008
  -9.8888888888888804E-002    -3.4564145323656703E-008
  -8.8888888888888795E-002    -1.3135070275893668E-007
  -7.8888888888888786E-002    -2.3282264294266497E-007
  -6.8888888888888777E-002    -3.1163111202658911E-007
  -5.8888888888888768E-002    -3.3631869200689835E-007
  -4.8888888888888871E-002    -2.7877234742845758E-007
  -3.8888888888888862E-002    -1.2331616972005577E-007
  -2.8888888888888853E-002     1.2458752962629660E-007
  -1.8888888888888844E-002     4.3258555137981602E-007
  -8.8888888888888351E-003     7.4113910386586213E-007
   1.1111111111111738E-003     9.7043368896265747E-007
   1.1111111111111183E-002     1.0347873740101932E-006
   2.1111111111111192E-002     8.6295301571226446E-007
   3.1111111111111200E-002     4.2077707007592835E-007
   4.1111111111111209E-002    -2.6876003289544315E-007
   5.1111111111111218E-002    -1.1135307431686670E-006
   6.1111111111111227E-002    -1.9527815311448649E-006
   7.1111111111111125E-002    -2.5723772978381021E-006
   8.1111111111111134E-002    -2.7335142931406153E-006
   9.1111111111111143E-002    -2.2096919565228745E-006
  0.10111111111111115         -8.2314357996438048E-007
  0.11111111111111116          1.5303185136872344E-006
  0.12111111111111117          4.8792107918416150E-006
  0.13111111111111118          9.2057371148257516E-006
  0.14111111111111119          1.4510254004562739E-005
  0.15111111111111120          2.0907742509734817E-005
  0.16111111111111120          2.8745935196639039E-005
  0.17111111111111121          3.8728401705157012E-005
  0.18111111111111122          5.2022554882569239E-005
  0.19111111111111123          7.0332724135369062E-005
  0.20111111111111124          9.5923118351493031E-005
  0.21111111111111125          1.3158369984012097E-004
  0.22111111111111126          1.8054267275147140E-004
  0.23111111111111127          2.4633997236378491E-004
  0.24111111111111128          3.3268475090153515E-004
  0.25111111111111128          4.4332383549772203E-004
  0.26111111111111129          5.8194732991978526E-004
  0.27111111111111108          7.5214996468275785E-004
  0.28111111111111109          9.5745472935959697E-004
  0.29111111111111110          1.2013918021693826E-003
  0.30111111111111111          1.4876113273203373E-003
  0.31111111111111112          1.8199966289103031E-003
  0.32111111111111112          2.2027413360774517E-003
  0.33111111111111113          2.6403528172522783E-003
  0.34111111111111114          3.1375554390251637E-003
  0.35111111111111115          3.6990777589380741E-003
  0.36111111111111116          4.3293233029544353E-003
  0.37111111111111117          5.0319414585828781E-003
  0.38111111111111118          5.8093257248401642E-003
  0.39111111111111119          6.6620702855288982E-003
  0.40111111111111120          7.5884172692894936E-003
  0.41111111111111120          8.5837235674262047E-003
  0.42111111111111121          9.6399728208780289E-003
  0.43111111111111122          1.0745350271463394E-002
  0.44111111111111123          1.1883890256285667E-002
  0.45111111111111124          1.3035227544605732E-002
  0.46111111111111125          1.4174467884004116E-002
  0.47111111111111126          1.5272215940058231E-002
  0.48111111111111127          1.6294801607728004E-002
  0.49111111111111128          1.7204750329256058E-002
  0.50111111111111128          1.7961531877517700E-002
  0.51111111111111129          1.8522614613175392E-002
  0.52111111111111108          1.8844822421669960E-002
  0.53111111111111109          1.8885947763919830E-002
  0.54111111111111110          1.8606571480631828E-002
  0.55111111111111111          1.7971973866224289E-002
  0.56111111111111112          1.6954027116298676E-002
  0.57111111111111112          1.5532953664660454E-002
  0.58111111111111113          1.3698810711503029E-002
  0.59111111111111114          1.1452632956206799E-002
  0.60111111111111115          8.8071608915925026E-003
  0.61111111111111116          5.7871220633387566E-003
  0.62111111111111117          2.4290739092975855E-003
  0.63111111111111118         -1.2191730784252286E-003
  0.64111111111111119         -5.0995098426938057E-003
  0.65111111111111120         -9.1448258608579636E-003
  0.66111111111111120         -1.3280611485242844E-002
  0.67111111111111121         -1.7426837235689163E-002
  0.68111111111111122         -2.1500075235962868E-002
  0.69111111111111123         -2.5415811687707901E-002
  0.70111111111111124         -2.9090916737914085E-002
  0.71111111111111125         -3.2446146011352539E-002
  0.72111111111111126         -3.5408593714237213E-002
  0.73111111111111127         -3.7913933396339417E-002
  0.74111111111111128         -3.9908342063426971E-002
  0.75111111111111128         -4.1349943727254868E-002
  0.76111111111111129         -4.2209692299365997E-002
  0.77111111111111130         -4.2471699416637421E-002
  0.78111111111111109         -4.2132958769798279E-002
  0.79111111111111110         -4.1202649474143982E-002
  0.80111111111111111         -3.9701111614704132E-002
  0.81111111111111112         -3.7658669054508209E-002
  0.82111111111111112         -3.5114474594593048E-002
  0.83111111111111113         -3.2115489244461060E-002
  0.84111111111111114         -2.8715627267956734E-002
  0.85111111111111115         -2.4975096806883812E-002
  0.86111111111111116         -2.0959794521331787E-002
  0.87111111111111117         -1.6740659251809120E-002
  0.88111111111111118         -1.2392812408506870E-002
  0.89111111111111119         -7.9943714663386345E-003
  0.90111111111111120         -3.6248574033379555E-003
  0.91111111111111120          6.3680089078843594E-004
  0.92111111111111121          4.7145704738795757E-003
  0.93111111111111122          8.5377655923366547E-003
  0.94111111111111123          1.2043443508446217E-002
  0.95111111111111124          1.5178524889051914E-002
  0.96111111111111125          1.7901454120874405E-002
  0.97111111111111126          2.0183281973004341E-002
  0.98111111111111127          2.2008126601576805E-002
  0.99111111111111128          2.3373033851385117E-002
   1.0011111111111113          2.4287356063723564E-002
   1.0111111111111113          2.4771757423877716E-002
   1.0211111111111113          2.4856979027390480E-002
   1.0311111111111111          2.4582467973232269E-002
   1.0411111111111111          2.3994894698262215E-002
   1.0511111111111111          2.3146584630012512E-002
   1.0611111111111111          2.2093806415796280E-002
   1.0711111111111111          2.0894862711429596E-002
   1.0811111111111111          1.9607976078987122E-002
   1.0911111111111111          1.8288964405655861E-002
   1.1011111111111112          1.6988834366202354E-002
   1.1111111111111112          1.5751436352729797E-002
   1.1211111111111114          1.4611402526497841E-002
   1.1311111111111112          1.3592640869319439E-002
   1.1411111111111114          1.2707557529211044E-002
   1.1511111111111112          1.1957186274230480E-002
   1.1611111111111110          1.1332234367728233E-002
   1.1711111111111112          1.0814961977303028E-002
   1.1811111111111110          1.0381673462688923E-002
   1.1911111111111112          1.0005517862737179E-002
   1.2011111111111110          9.6592437475919724E-003
   1.2111111111111112          9.3175731599330902E-003
   1.2211111111111110          8.9589441195130348E-003
   1.2311111111111113          8.5664670914411545E-003
   1.2411111111111111          8.1280972808599472E-003
   1.2511111111111113          7.6361498795449734E-003
   1.2611111111111111          7.0864022709429264E-003
   1.2711111111111113          6.4770588651299477E-003
   1.2811111111111111          5.8078663423657417E-003
   1.2911111111111113          5.0795874558389187E-003
   1.3011111111111111          4.2939358390867710E-003
   1.3111111111111113          3.4539443440735340E-003
   1.3211111111111111          2.5646255817264318E-003
   1.3311111111111114          1.6336963744834065E-003
   1.3411111111111111          6.7211635177955031E-004
   1.3511111111111114         -3.0576955759897828E-004
   1.3611111111111112         -1.2826104648411274E-003
   1.3711111111111114         -2.2389525547623634E-003
   1.3811111111111112         -3.1545392703264952E-003
   1.3911111111111114         -4.0097860619425774E-003
   1.4011111111111112         -4.7871549613773823E-003
   1.4111111111111114         -5.4721669293940067E-003
   1.4211111111111112         -6.0538738034665585E-003
   1.4311111111111110         -6.5247290767729282E-003
   1.4411111111111112         -6.8799415603280067E-003
   1.4511111111111110         -7.1165258996188641E-003
   1.4611111111111112         -7.2323423810303211E-003
   1.4711111111111110         -7.2254254482686520E-003
   1.4811111111111113         -7.0938467979431152E-003
   1.4911111111111111         -6.8362136371433735E-003
   1.5011111111111113         -6.4527494832873344E-003
   1.5111111111111111         -5.9467423707246780E-003
   1.5211111111111113         -5.3260130807757378E-003
   1.5311111111111111         -4.6040192246437073E-003
   1.5411111111111113         -3.8002496585249901E-003
   1.5511111111111111         -2.9396868776530027E-003
   1.5611111111111113         -2.0512985065579414E-003
   1.5711111111111111         -1.1657284339889884E-003
   1.5811111111111114         -3.1252793269231915E-004
   1.5911111111111111          4.8261601477861404E-004
   1.6011111111111114          1.2001853901892900E-003
   1.6111111111111112          1.8282780656591058E-003
   1.6211111111111114          2.3629739880561829E-003
   1.6311111111111112          2.8076081071048975E-003
   1.6411111111111114          3.1711498741060495E-003
   1.6511111111111112          3.4660557284951210E-003
   1.6611111111111114          3.7060393951833248E-003
   1.6711111111111112          3.9041892159730196E-003
   1.6811111111111110          4.0717450901865959E-003
   1.6911111111111112          4.2176698334515095E-003
   1.7011111111111110          4.3489513918757439E-003
   1.7111111111111112          4.4713951647281647E-003
   1.7211111111111110          4.5905625447630882E-003
   1.7311111111111113          4.7124964185059071E-003
   1.7411111111111111          4.8439460806548595E-003
   1.7511111111111113          4.9919569864869118E-003
   1.7611111111111111          5.1628677174448967E-003
   1.7711111111111113          5.3609260357916355E-003
   1.7811111111111111          5.5868485942482948E-003
   1.7911111111111113          5.8366945013403893E-003
   1.8011111111111111          6.1013633385300636E-003
   1.8111111111111113          6.3669052906334400E-003
   1.8211111111111111          6.6156629472970963E-003
   1.8311111111111114          6.8280873820185661E-003
   1.8411111111111111          6.9849304854869843E-003
   1.8511111111111114          7.0694386959075928E-003
   1.8611111111111112          7.0691853761672974E-003
   1.8711111111111114          6.9772517308592796E-003
   1.8811111111111112          6.7926147021353245E-003
   1.8911111111111114          6.5197483636438847E-003
   1.9011111111111112          6.1675999313592911E-003
   1.9111111111111114          5.7482025586068630E-003
   1.9211111111111112          5.2752201445400715E-003
   1.9311111111111110          4.7627007588744164E-003
   1.9411111111111112          4.2242300696671009E-003
   1.9511111111111110          3.6725599784404039E-003
   1.9611111111111112          3.1196696218103170E-003
   1.9711111111111110          2.5771162472665310E-003
   1.9811111111111113          2.0564675796777010E-003
   1.9911111111111111          1.5696011250838637E-003
   2.0011111111111113          1.1286886874586344E-003
   2.0111111111111111          7.4576667975634336E-004
   2.0211111111111113          4.3188958079554141E-004
   2.0311111111111111          1.9597148639149964E-004
   2.0411111111111113          4.3502808694029227E-005
   2.0511111111111111         -2.4618260795250535E-005
   2.0611111111111113         -1.2896588486910332E-005
   2.0711111111111111          6.8507004471030086E-005
   2.0811111111111114          2.0419573411345482E-004
   2.0911111111111111          3.7463335320353508E-004
   2.1011111111111114          5.5780255934223533E-004
   2.1111111111111112          7.3120486922562122E-004
   2.1211111111111114          8.7391305714845657E-004
   2.1311111111111112          9.6836511511355639E-004
   2.1411111111111114          1.0016269516199827E-003
   2.1511111111111112          9.6593954367563128E-004
   2.1611111111111114          8.5849704919382930E-004
   2.1711111111111112          6.8054831353947520E-004
   2.1811111111111114          4.3604808161035180E-004
   2.1911111111111112          1.3017313904128969E-004
   2.2011111111111110         -2.3195687390398234E-004
   2.2111111111111112         -6.4606574596837163E-004
   2.2211111111111110         -1.1088461615145206E-003
   2.2311111111111113         -1.6174205811694264E-003
   2.2411111111111111         -2.1683056838810444E-003
   2.2511111111111113         -2.7561858296394348E-003
   2.2611111111111111         -3.3728731796145439E-003
   2.2711111111111113         -4.0068081580102444E-003
   2.2811111111111111         -4.6433494426310062E-003
   2.2911111111111113         -5.2659241482615471E-003
   2.3011111111111111         -5.8579049073159695E-003
   2.3111111111111113         -6.4048883505165577E-003
   2.3211111111111111         -6.8969307467341423E-003
   2.3311111111111114         -7.3302630335092545E-003
   2.3411111111111111         -7.7080866321921349E-003
   2.3511111111111114         -8.0402167513966560E-003
   2.3611111111111112         -8.3415731787681580E-003
   2.3711111111111114         -8.6297420784831047E-003
   2.3811111111111112         -8.9220385998487473E-003
   2.3911111111111114         -9.2325713485479355E-003
   2.4011111111111112         -9.5698377117514610E-003
   2.4111111111111114         -9.9352207034826279E-003
   2.4211111111111112         -1.0322603397071362E-002
   2.4311111111111114         -1.0719066485762596E-002
   2.4411111111111112         -1.1106456629931927E-002
   2.4511111111111110         -1.1463461443781853E-002
   2.4611111111111112         -1.1767784133553505E-002
   2.4711111111111110         -1.1998064815998077E-002
   2.4811111111111113         -1.2135297991335392E-002
   2.4911111111111111         -1.2163643725216389E-002
   2.5011111111111113         -1.2070692144334316E-002
   2.5111111111111111         -1.1847339570522308E-002
   2.5211111111111113         -1.1487483046948910E-002
   2.5311111111111111         -1.0987750254571438E-002
   2.5411111111111113         -1.0347399860620499E-002
   2.5511111111111111         -9.5684574916958809E-003
   2.5611111111111113         -8.6560519412159920E-003
   2.5711111111111111         -7.6188584789633751E-003
   2.5811111111111114         -6.4695100300014019E-003
   2.5911111111111111         -5.2248537540435791E-003
   2.6011111111111114         -3.9059501141309738E-003
   2.6111111111111112         -2.5377580896019936E-003
   2.6211111111111114         -1.1484874412417412E-003
   2.6311111111111112          2.3136366507969797E-004
   2.6411111111111114          1.5702532837167382E-003
   2.6511111111111112          2.8370665386319160E-003
   2.6611111111111114          4.0027350187301636E-003
   2.6711111111111112          5.0418907776474953E-003
   2.6811111111111114          5.9344037435948849E-003
   2.6911111111111112          6.6666128113865852E-003
   2.7011111111111110          7.2320559993386269E-003
   2.7111111111111112          7.6315365731716156E-003
   2.7211111111111110          7.8724399209022522E-003
   2.7311111111111113          7.9673388972878456E-003
   2.7411111111111111          7.9320659860968590E-003
   2.7511111111111113          7.7835614793002605E-003
   2.7611111111111111          7.5378804467618465E-003
   2.7711111111111113          7.2087445296347141E-003
   2.7811111111111111          6.8069347180426121E-003
   2.7911111111111113          6.3406499102711678E-003
   2.8011111111111111          5.8167348615825176E-003
   2.8111111111111113          5.2424720488488674E-003
   2.8211111111111111          4.6274662017822266E-003
   2.8311111111111114          3.9850920438766479E-003
   2.8411111111111111          3.3330572769045830E-003
   2.8511111111111114          2.6928090956062078E-003
   2.8611111111111112          2.0877982024103403E-003
   2.8711111111111114          1.5408922918140888E-003
   2.8811111111111112          1.0714654345065355E-003
   2.8911111111111114          6.9279660237953067E-004
   2.9011111111111112          4.1036782204173505E-004
   2.9111111111111114          2.2146374976728112E-004
   2.9211111111111112          1.1617707787081599E-004
   2.9311111111111114          7.9602723417337984E-005
   2.9411111111111112          9.4729664851911366E-005
   2.9511111111111110          1.4538684627041221E-004
   2.9611111111111112          2.1860294509679079E-004
   2.9711111111111110          3.0590183450840414E-004
   2.9811111111111113          4.0332932258024812E-004
   2.9911111111111111          5.1032553892582655E-004
   3.0011111111111113          6.2784069450572133E-004
   3.0111111111111111          7.5626553734764457E-004
   3.0211111111111113          8.9377484982833266E-004
   3.0311111111111111          1.0355513077229261E-003
   3.0411111111111113          1.1741109192371368E-003
   3.0511111111111111          1.3006502995267510E-003
   3.0611111111111113          1.4070651959627867E-003
   3.0711111111111111          1.4881101669743657E-003
   3.0811111111111114          1.5431364299729466E-003
   3.0911111111111111          1.5769483288750052E-003
   3.1011111111111114          1.5995412832126021E-003
   3.1111111111111112          1.6247463645413518E-003
   3.1211111111111109          1.6680577537044883E-003
   3.1311111111111116          1.7440832452848554E-003
   3.1411111111111114          1.8641120987012982E-003
   3.1511111111111112          2.0342324860394001E-003
   3.1611111111111110          2.2542795632034540E-003
   3.1711111111111117          2.5177043862640858E-003
   3.1811111111111114          2.8122677467763424E-003
   3.1911111111111112          3.1213341280817986E-003
   3.2011111111111110          3.4254728816449642E-003
   3.2111111111111108          3.7040908355265856E-003
   3.2211111111111115          3.9368807338178158E-003
   3.2311111111111113          4.1049672290682793E-003
   3.2411111111111111          4.1917166672646999E-003
   3.2511111111111108          4.1832476854324341E-003
   3.2611111111111115          4.0687075816094875E-003
   3.2711111111111113          3.8403836078941822E-003
   3.2811111111111111          3.4937071613967419E-003
   3.2911111111111109          3.0272023286670446E-003
   3.3011111111111116          2.4424314033240080E-003
   3.3111111111111113          1.7439994262531400E-003
   3.3211111111111111          9.3968870351091027E-004
   3.3311111111111109          4.0780483686830848E-005
   3.3411111111111116         -9.3743286561220884E-004
   3.3511111111111114         -1.9750252831727266E-003
   3.3611111111111112         -3.0468865297734737E-003
   3.3711111111111109         -4.1225161403417587E-003
   3.3811111111111116         -5.1664616912603378E-003
   3.3911111111111114         -6.1396593227982521E-003
   3.4011111111111112         -7.0017827674746513E-003
   3.4111111111111110         -7.7145053073763847E-003
   3.4211111111111117         -8.2453368231654167E-003
   3.4311111111111114         -8.5714925080537796E-003
   3.4411111111111112         -8.6831515654921532E-003
   3.4511111111111110         -8.5854921489953995E-003
   3.4611111111111117         -8.2990564405918121E-003
   3.4711111111111115         -7.8583164140582085E-003
   3.4811111111111113         -7.3086405172944069E-003
   3.4911111111111111         -6.7021991126239300E-003
   3.5011111111111108         -6.0935551300644875E-003
   3.5111111111111115         -5.5357324890792370E-003
   3.5211111111111113         -5.0774109549820423E-003
   3.5311111111111111         -4.7615882940590382E-003
   3.5411111111111109         -4.6256608329713345E-003
   3.5511111111111116         -4.7024963423609734E-003
   3.5611111111111113         -5.0218170508742332E-003
   3.5711111111111111         -5.6111356243491173E-003
   3.5811111111111109         -6.4956261776387691E-003
   3.5911111111111116         -7.6966369524598122E-003
   3.6011111111111114         -9.2289475724101067E-003
   3.6111111111111112         -1.1097261682152748E-002
   3.6211111111111109         -1.3292705640196800E-002
   3.6311111111111116         -1.5790138393640518E-002
   3.6411111111111114         -1.8546970561146736E-002
   3.6511111111111112         -2.1503826603293419E-002
   3.6611111111111110         -2.4587018415331841E-002
   3.6711111111111117         -2.7712345123291016E-002
   3.6811111111111114         -3.0789526179432869E-002
   3.6911111111111112         -3.3726431429386139E-002
   3.7011111111111110         -3.6432430148124695E-002
   3.7111111111111117         -3.8820456713438034E-002
   3.7211111111111115         -4.0807772427797318E-002
   3.7311111111111113         -4.2315766215324402E-002
   3.7411111111111111         -4.3269410729408264E-002
   3.7511111111111108         -4.3597023934125900E-002
   3.7611111111111115         -4.3230909854173660E-002
   3.7711111111111113         -4.2109206318855286E-002
   3.7811111111111111         -4.0178827941417694E-002
   3.7911111111111109         -3.7399217486381531E-002
   3.8011111111111116         -3.3746276050806046E-002
   3.8111111111111113         -2.9215885326266289E-002
   3.8211111111111111         -2.3826444521546364E-002
   3.8311111111111109         -1.7620131373405457E-002
   3.8411111111111116         -1.0662785731256008E-002
   3.8511111111111114         -3.0425810255110264E-003
   3.8611111111111112          5.1322267390787601E-003
   3.8711111111111109          1.3736140914261341E-002
   3.8811111111111116          2.2629564628005028E-002
   3.8911111111111114          3.1662076711654663E-002
   3.9011111111111112          4.0675763040781021E-002
   3.9111111111111110          4.9508642405271530E-002
   3.9211111111111117          5.7998184114694595E-002
   3.9311111111111114          6.5984934568405151E-002
   3.9411111111111112          7.3316134512424469E-002
   3.9511111111111110          7.9849191009998322E-002
   3.9611111111111117          8.5454829037189484E-002
   3.9711111111111115          9.0019769966602325E-002
   3.9811111111111113          9.3448892235755920E-002
   3.9911111111111111          9.5667034387588501E-002
   4.0011111111111113          9.6620559692382812E-002
   4.0111111111111111          9.6278868615627289E-002
   4.0211111111111109          9.4636075198650360E-002
   4.0311111111111106          9.1712683439254761E-002
   4.0411111111111104          8.7557047605514526E-002
   4.0511111111111120          8.2246124744415283E-002
   4.0611111111111118          7.5884975492954254E-002
   4.0711111111111116          6.8604514002799988E-002
   4.0811111111111114          6.0557283461093903E-002
   4.0911111111111111          5.1911376416683197E-002
   4.1011111111111109          4.2843058705329895E-002
   4.1111111111111107          3.3528953790664673E-002
   4.1211111111111105          2.4138802662491798E-002
   4.1311111111111121          1.4829788357019424E-002
   4.1411111111111119          5.7430486194789410E-003
   4.1511111111111116         -2.9974114149808884E-003
   4.1611111111111114         -1.1283770203590393E-002
   4.1711111111111112         -1.9022192806005478E-002
   4.1811111111111110         -2.6130434125661850E-002
   4.1911111111111108         -3.2536264508962631E-002
   4.2011111111111106         -3.8177423179149628E-002
   4.2111111111111121         -4.3003339320421219E-002
   4.2211111111111119         -4.6978183090686798E-002
   4.2311111111111117         -5.0084467977285385E-002
   4.2411111111111115         -5.2326031029224396E-002
   4.2511111111111113         -5.3729321807622910E-002
   4.2611111111111111         -5.4342318326234818E-002
   4.2711111111111109         -5.4230872541666031E-002
   4.2811111111111106         -5.3473040461540222E-002
   4.2911111111111104         -5.2152350544929504E-002
   4.3011111111111120         -5.0351358950138092E-002
   4.3111111111111118         -4.8146665096282959E-002
   4.3211111111111116         -4.5606318861246109E-002
   4.3311111111111114         -4.2789861559867859E-002
   4.3411111111111111         -3.9750643074512482E-002
   4.3511111111111109         -3.6539450287818909E-002
   4.3611111111111107         -3.3208280801773071E-002
   4.3711111111111105         -2.9812995344400406E-002
   4.3811111111111121         -2.6413969695568085E-002
   4.3911111111111119         -2.3074436932802200E-002
   4.4011111111111116         -1.9856786355376244E-002
   4.4111111111111114         -1.6817659139633179E-002
   4.4211111111111112         -1.4002981595695019E-002
   4.4311111111111110         -1.1444085277616978E-002
   4.4411111111111108         -9.1557912528514862E-003
   4.4511111111111106         -7.1368450298905373E-003
   4.4611111111111121         -5.3725410252809525E-003
   4.4711111111111119         -3.8388837128877640E-003
   4.4811111111111117         -2.5073648430407047E-003
   4.4911111111111115         -1.3493860606104136E-003
   4.5011111111111113         -3.3956029801629484E-004
   4.5111111111111111          5.4252037080004811E-004
   4.5211111111111109          1.3120590010657907E-003
   4.5311111111111106          1.9800346344709396E-003
   4.5411111111111104          2.5548480916768312E-003
   4.5511111111111120          3.0440506525337696E-003