 -0.88888888888888884         -2.9292523515866742E-017
 -0.87888888888888883          4.4930336600234778E-017
 -0.86888888888888882         -8.8227172014574209E-015
 -0.85888888888888881         -2.0384578018075271E-014
 -0.84888888888888880         -1.2889413860783620E-014
 -0.83888888888888880          2.0313864319506693E-014
 -0.82888888888888879          5.1005179897353758E-014
 -0.81888888888888878          4.3666350917070940E-014
 -0.80888888888888888          5.4218028382332049E-015
 -0.79888888888888887         -1.0527964777902726E-014
 -0.78888888888888886          2.4992611739925799E-014
 -0.77888888888888885          4.5482769026744529E-014
 -0.76888888888888884         -7.2186804060334064E-014
 -0.75888888888888884         -3.4521333274611932E-013
 -0.74888888888888883         -5.5463077706929820E-013
 -0.73888888888888882         -3.5191801187571536E-013
 -0.72888888888888881          3.8267647514342307E-013
 -0.71888888888888880          1.2191969439231953E-012
 -0.70888888888888890          1.2917097946818501E-012
 -0.69888888888888889         -4.5964625741646767E-014
 -0.68888888888888888         -2.4295663137580137E-012
 -0.67888888888888888         -4.2335141468841098E-012
 -0.66888888888888887         -3.2321951105168667E-012
 -0.65888888888888886          2.1009953759393296E-012
 -0.64888888888888885          1.1293996120265160E-011
 -0.63888888888888884          2.0967649491665519E-011
 -0.62888888888888883          2.4397426787170495E-011
 -0.61888888888888882          1.2194728733760929E-011
 -0.60888888888888881         -2.3867184270609521E-011
 -0.59888888888888880         -8.1783892158515670E-011
 -0.58888888888888880         -1.3699490153395999E-010
 -0.57888888888888879         -1.3693755851473810E-010
 -0.56888888888888878         -1.8557046524425580E-011
 -0.55888888888888877          2.4195850878427905E-010
 -0.54888888888888876          5.6339904963564891E-010
 -0.53888888888888875          7.2800804273853714E-010
 -0.52888888888888885          4.4876247162761729E-010
 -0.51888888888888884         -4.3763354051762349E-010
 -0.50888888888888884         -1.7203863889037052E-009
 -0.49888888888888883         -2.6826738608320966E-009
 -0.48888888888888882         -2.2943906774486322E-009
 -0.47888888888888881          1.9107494753090037E-010
 -0.46888888888888886          4.4359582673791920E-009
 -0.45888888888888885          8.5079339129379150E-009
 -0.44888888888888884          9.2373557691871611E-009
 -0.43888888888888883          3.7041942846371967E-009
 -0.42888888888888882         -8.5640525782082477E-009
 -0.41888888888888881         -2.3827329442838163E-008
 -0.40888888888888886         -3.4211950605822494E-008
 -0.39888888888888885         -3.0466619449498467E-008
 -0.38888888888888884         -6.8596572866397310E-009
 -0.37888888888888883          3.3858672310316251E-008
 -0.36888888888888882          7.8270780079492397E-008
 -0.35888888888888881          1.0499427105514769E-007
 -0.34888888888888880          9.2209127444675687E-008
 -0.33888888888888880          2.7330731455776913E-008
 -0.32888888888888879         -8.5407243943791400E-008
 -0.31888888888888878         -2.2309166070044739E-007
 -0.30888888888888888         -3.4897925615950953E-007
 -0.29888888888888887         -4.2184811377410369E-007
 -0.28888888888888886         -4.0593957351120480E-007
 -0.27888888888888885         -2.7860667728418775E-007
 -0.26888888888888884         -3.5891396521492425E-008
 -0.25888888888888884          3.0100773074082099E-007
 -0.24888888888888883          6.7584272755993879E-007
 -0.23888888888888882          9.8606778919929639E-007
 -0.22888888888888881          1.0790088253997965E-006
 -0.21888888888888880          7.6837534379592398E-007
 -0.20888888888888879         -1.1899999918796311E-007
 -0.19888888888888878         -1.6679477994330227E-006
 -0.18888888888888877         -3.7895667901466368E-006
 -0.17888888888888888         -6.1577397900691722E-006
 -0.16888888888888887         -8.2027827374986373E-006
 -0.15888888888888886         -9.1864121714024805E-006
 -0.14888888888888885         -8.3601744336192496E-006
 -0.13888888888888884         -5.1847327995346859E-006
 -0.12888888888888883          4.3123716864101880E-007
 -0.11888888888888882          7.9222554631996900E-006
 -0.10888888888888881          1.5937661373754963E-005
  -9.8888888888888804E-002     2.2342275769915432E-005
  -8.8888888888888795E-002     2.4393444618908688E-005
  -7.8888888888888786E-002     1.9135843103867956E-005
  -6.8888888888888777E-002     4.0326494854525663E-006
  -5.8888888888888768E-002    -2.2199694285518490E-005
  -4.8888888888888871E-002    -5.8665722463047132E-005
  -3.8888888888888862E-002    -1.0147837747354060E-004
  -2.8888888888888853E-002    -1.4333249418996274E-004
  -1.8888888888888844E-002    -1.7374783055856824E-004
  -8.8888888888888351E-003    -1.8019617709796876E-004
   1.1111111111111738E-003    -1.5018149861134589E-004
   1.1111111111111183E-002    -7.4153867899440229E-005
   2.1111111111111192E-002     5.1048489694949239E-005
   3.1111111111111200E-002     2.1867983741685748E-004
   4.1111111111111209E-002     4.0902185719460249E-004
   5.1111111111111218E-002     5.8731896569952369E-004
   6.1111111111111227E-002     7.0321233943104744E-004
   7.1111111111111125E-002     6.9205823820084333E-004
   8.1111111111111134E-002     4.7833452117629349E-004
   9.1111111111111143E-002    -1.8927881683339365E-005
  0.10111111111111115         -8.7908760178834200E-004
  0.11111111111111116         -2.1719534415751696E-003
  0.12111111111111117         -3.9499849081039429E-003
  0.13111111111111118         -6.2417485751211643E-003
  0.14111111111111119         -9.0476321056485176E-003
  0.15111111111111120         -1.2338452972471714E-002
  0.16111111111111120         -1.6057129949331284E-002
  0.17111111111111121         -2.0123070105910301E-002
  0.18111111111111122         -2.4438556283712387E-002
  0.19111111111111123         -2.8896145522594452E-002
  0.20111111111111124         -3.3386062830686569E-002
  0.21111111111111125         -3.7802655249834061E-002
  0.22111111111111126         -4.2049076408147812E-002
  0.23111111111111127         -4.6039726585149765E-002
  0.24111111111111128         -4.9700133502483368E-002
  0.25111111111111128         -5.2964542061090469E-002
  0.26111111111111129         -5.5771850049495697E-002
  0.27111111111111108         -5.8060958981513977E-002
  0.28111111111111109         -5.9766765683889389E-002
  0.29111111111111110         -6.0817901045084000E-002
  0.30111111111111111         -6.1136916279792786E-002
  0.31111111111111112         -6.0642953962087631E-002
  0.32111111111111112         -5.9256423264741898E-002
  0.33111111111111113         -5.6904871016740799E-002
  0.34111111111111114         -5.3529094904661179E-002
  0.35111111111111115         -4.9088884145021439E-002
  0.36111111111111116         -4.3567858636379242E-002
  0.37111111111111117         -3.6977224051952362E-002
  0.38111111111111118         -2.9358286410570145E-002
  0.39111111111111119         -2.0783586427569389E-002
  0.40111111111111120         -1.1356590315699577E-002
  0.41111111111111120         -1.2100824387744069E-003
  0.42111111111111121          9.4964187592267990E-003
  0.43111111111111122          2.0579671487212181E-002
  0.44111111111111123          3.1835731118917465E-002
  0.45111111111111124          4.3042875826358795E-002
  0.46111111111111125          5.3964871913194656E-002
  0.47111111111111126          6.4355365931987762E-002
  0.48111111111111127          7.3964238166809082E-002
  0.49111111111111128          8.2546353340148926E-002
  0.50111111111111128          8.9872255921363831E-002
  0.51111111111111129          9.5739923417568207E-002
  0.52111111111111108          9.9985942244529724E-002
  0.53111111111111109         0.10249491780996323     
  0.54111111111111110         0.10320611298084259     
  0.55111111111111111         0.10211694240570068     
  0.56111111111111112          9.9283277988433838E-002
  0.57111111111111112          9.4816625118255615E-002
  0.58111111111111113          8.8878117501735687E-002
  0.59111111111111114          8.1669382750988007E-002
  0.60111111111111115          7.3420792818069458E-002
  0.61111111111111116          6.4378283917903900E-002
  0.62111111111111117          5.4790411144495010E-002
  0.63111111111111118          4.4897593557834625E-002
  0.64111111111111119          3.4924786537885666E-002
  0.65111111111111120          2.5077793747186661E-002
  0.66111111111111120          1.5542319044470787E-002
  0.67111111111111121          6.4841294661164284E-003
  0.68111111111111122         -1.9511271966621280E-003
  0.69111111111111123         -9.6392007544636726E-003
  0.70111111111111124         -1.6479380428791046E-002
  0.71111111111111125         -2.2396719083189964E-002
  0.72111111111111126         -2.7343573048710823E-002
  0.73111111111111127         -3.1300242990255356E-002
  0.74111111111111128         -3.4274969249963760E-002
  0.75111111111111128         -3.6303646862506866E-002
  0.76111111111111129         -3.7449143826961517E-002
  0.77111111111111130         -3.7799336016178131E-002
  0.78111111111111109         -3.7462722510099411E-002
  0.79111111111111110         -3.6560818552970886E-002
  0.80111111111111111         -3.5217799246311188E-002
  0.81111111111111112         -3.3549182116985321E-002
  0.82111111111111112         -3.1652230769395828E-002
  0.83111111111111113         -2.9600398615002632E-002
  0.84111111111111114         -2.7442751452326775E-002
  0.85111111111111115         -2.5207636877894402E-002
  0.86111111111111116         -2.2908592596650124E-002
  0.87111111111111117         -2.0550422370433807E-002
  0.88111111111111118         -1.8134249374270439E-002
  0.89111111111111119         -1.5661582350730896E-002
  0.90111111111111120         -1.3138188049197197E-002
  0.91111111111111120         -1.0578210465610027E-002
  0.92111111111111121         -8.0080078914761543E-003
  0.93111111111111122         -5.4681682959198952E-003
  0.94111111111111123         -3.0121139716356993E-003
  0.95111111111111124         -7.0081814192235470E-004
  0.96111111111111125          1.4050867175683379E-003
  0.97111111111111126          3.2531463075429201E-003
  0.98111111111111127          4.8041287809610367E-003
  0.99111111111111128          6.0329362750053406E-003
   1.0011111111111113          6.9261845201253891E-003
   1.0111111111111113          7.4788951314985752E-003
   1.0211111111111113          7.6928725466132164E-003
   1.0311111111111111          7.5779128819704056E-003
   1.0411111111111111          7.1548419073224068E-003
   1.0511111111111111          6.4579211175441742E-003
   1.0611111111111111          5.5342721752822399E-003
   1.0711111111111111          4.4397003948688507E-003
   1.0811111111111111          3.2324532512575388E-003
   1.0911111111111111          1.9677118398249149E-003
   1.1011111111111112          6.9508823798969388E-004
   1.1111111111111112         -5.4061913397163153E-004
   1.1211111111111114         -1.6973618185147643E-003
   1.1311111111111112         -2.7353470213711262E-003
   1.1411111111111114         -3.6199348978698254E-003
   1.1511111111111112         -4.3273102492094040E-003
   1.1611111111111110         -4.8500252887606621E-003
   1.1711111111111112         -5.1989331841468811E-003
   1.1811111111111110         -5.3996746428310871E-003
   1.1911111111111112         -5.4848454892635345E-003
   1.2011111111111110         -5.4854694753885269E-003
   1.2111111111111112         -5.4258080199360847E-003
   1.2211111111111110         -5.3235301747918129E-003
   1.2311111111111113         -5.1940144039690495E-003
   1.2411111111111111         -5.0550992600619793E-003
   1.2511111111111113         -4.9284733831882477E-003
   1.2611111111111111         -4.8362691886723042E-003
   1.2711111111111113         -4.7947531566023827E-003
   1.2811111111111111         -4.8091909848153591E-003
   1.2911111111111113         -4.8734811134636402E-003
   1.3011111111111111         -4.9752513878047466E-003
   1.3111111111111113         -5.1035797223448753E-003
   1.3211111111111111         -5.2546449005603790E-003
   1.3311111111111114         -5.4317140020430088E-003
   1.3411111111111111         -5.6393840350210667E-003
   1.3511111111111114         -5.8757085353136063E-003
   1.3611111111111112         -6.1273868195712566E-003
   1.3711111111111114         -6.3714678399264812E-003
   1.3811111111111112         -6.5830172970890999E-003
   1.3911111111111114         -6.7443917505443096E-003
   1.4011111111111112         -6.8506523966789246E-003
   1.4111111111111114         -6.9079780951142311E-003
   1.4211111111111112         -6.9263698533177376E-003
   1.4311111111111110         -6.9116279482841492E-003
   1.4411111111111112         -6.8621220998466015E-003
   1.4511111111111110         -6.7728068679571152E-003
   1.4611111111111112         -6.6440994851291180E-003
   1.4711111111111110         -6.4897630363702774E-003
   1.4811111111111113         -6.3380952924489975E-003
   1.4911111111111111         -6.2246159650385380E-003
   1.5011111111111113         -6.1797052621841431E-003
   1.5111111111111111         -6.2179341912269592E-003
   1.5211111111111113         -6.3350186683237553E-003
   1.5311111111111111         -6.5137767232954502E-003
   1.5411111111111113         -6.7350100725889206E-003
   1.5511111111111111         -6.9862930104136467E-003
   1.5611111111111113         -7.2632269002497196E-003
   1.5711111111111111         -7.5627812184393406E-003
   1.5811111111111114         -7.8737745061516762E-003
   1.5911111111111111         -8.1717064604163170E-003
   1.6011111111111114         -8.4225842729210854E-003
   1.6111111111111112         -8.5945492610335350E-003
   1.6211111111111114         -8.6707444861531258E-003
   1.6311111111111112         -8.6554810404777527E-003
   1.6411111111111114         -8.5694417357444763E-003
   1.6511111111111112         -8.4362812340259552E-003
   1.6611111111111114         -8.2683851942420006E-003
   1.6711111111111112         -8.0602532252669334E-003
   1.6811111111111110         -7.7933948487043381E-003
   1.6911111111111112         -7.4495063163340092E-003
   1.7011111111111110         -7.0235482417047024E-003
   1.7111111111111112         -6.5284376032650471E-003
   1.7211111111111110         -5.9884744696319103E-003
   1.7311111111111113         -5.4259295575320721E-003
   1.7411111111111111         -4.8497617244720459E-003
   1.7511111111111113         -4.2541977018117905E-003
   1.7611111111111111         -3.6285403184592724E-003
   1.7711111111111113         -2.9720996972173452E-003
   1.7811111111111111         -2.3043730761855841E-003
   1.7911111111111113         -1.6631479375064373E-003
   1.8011111111111111         -1.0906286770477891E-003
   1.8111111111111113         -6.1535614077001810E-004
   1.8211111111111111         -2.4069542996585369E-004
   1.8311111111111114          5.3083706006873399E-005
   1.8411111111111111          2.9440730577334762E-004
   1.8511111111111114          5.0261226715520024E-004
   1.8611111111111112          6.7783117992803454E-004
   1.8711111111111114          8.0471654655411839E-004
   1.8811111111111112          8.6727598682045937E-004
   1.8911111111111114          8.6482230108231306E-004
   1.9011111111111112          8.1812986172735691E-004
   1.9111111111111114          7.6106295455247164E-004
   1.9211111111111112          7.2238442953675985E-004
   1.9311111111111110          7.0913619128987193E-004
   1.9411111111111112          7.0249702548608184E-004
   1.9511111111111110          6.6947034792974591E-004
   1.9611111111111112          5.8378267567604780E-004
   1.9711111111111110          4.4332531979307532E-004
   1.9811111111111113          2.7331887395121157E-004
   1.9911111111111111          1.1314438597764820E-004
   2.0011111111111113         -4.9797863539424725E-006
   2.0111111111111111         -7.2091432230081409E-005
   2.0211111111111113         -1.0320977889932692E-004
   2.0311111111111111         -1.2232338485773653E-004
   2.0411111111111113         -1.4141287829261273E-004
   2.0511111111111111         -1.4728427049703896E-004
   2.0611111111111113         -1.0515886242501438E-004
   2.0711111111111111          2.2757367332815193E-005
   2.0811111111111114          2.5531958090141416E-004
   2.0911111111111111          5.8124342467635870E-004
   2.1011111111111114          9.6623768331483006E-004
   2.1111111111111112          1.3743924209848046E-003
   2.1211111111111114          1.7903703264892101E-003
   2.1311111111111112          2.2279664408415556E-003
   2.1411111111111114          2.7188693638890982E-003
   2.1511111111111112          3.2879307400435209E-003
   2.1611111111111114          3.9300611242651939E-003
   2.1711111111111112          4.6033123508095741E-003
   2.1811111111111114          5.2429423667490482E-003
   2.1911111111111112          5.7883104309439659E-003
   2.2011111111111110          6.2064947560429573E-003
   2.2111111111111112          6.4986520446836948E-003
   2.2211111111111110          6.6861351951956749E-003
   2.2311111111111113          6.7862742580473423E-003
   2.2411111111111111          6.7942948080599308E-003
   2.2511111111111113          6.6837556660175323E-003
   2.2611111111111111          6.4256498590111732E-003
   2.2711111111111113          6.0136970132589340E-003
   2.2811111111111111          5.4785837419331074E-003
   2.2911111111111113          4.8802797682583332E-003
   2.3011111111111111          4.2812763713300228E-003
   2.3111111111111113          3.7160464562475681E-003
   2.3211111111111111          3.1751592177897692E-003
   2.3311111111111114          2.6140480767935514E-003
   2.3411111111111111          1.9814954139292240E-003
   2.3511111111111114          1.2507762294262648E-003
   2.3611111111111112          4.3481751345098019E-004
   2.3711111111111114         -4.2321454384364188E-004
   2.3811111111111112         -1.2770146131515503E-003
   2.3911111111111114         -2.1039429120719433E-003
   2.4011111111111112         -2.9139248654246330E-003
   2.4111111111111114         -3.7345376331359148E-003
   2.4211111111111112         -4.5820102095603943E-003
   2.4311111111111114         -5.4373987950384617E-003
   2.4411111111111112         -6.2443967908620834E-003
   2.4511111111111110         -6.9316592998802662E-003
   2.4611111111111112         -7.4467295780777931E-003
   2.4711111111111110         -7.7807577326893806E-003
   2.4811111111111113         -7.9684527590870857E-003
   2.4911111111111111         -8.0630397424101830E-003
   2.5011111111111113         -8.1017715856432915E-003
   2.5111111111111111         -8.0836983397603035E-003
   2.5211111111111113         -7.9738348722457886E-003
   2.5311111111111111         -7.7311652712523937E-003
   2.5411111111111113         -7.3425699956715107E-003
   2.5511111111111111         -6.8406309001147747E-003
   2.5611111111111113         -6.2931193970143795E-003
   2.5711111111111111         -5.7697929441928864E-003
   2.5811111111111114         -5.3066844120621681E-003
   2.5911111111111111         -4.8900139518082142E-003
   2.6011111111111114         -4.4698244892060757E-003
   2.6111111111111112         -3.9948830381035805E-003
   2.6211111111111114         -3.4470399841666222E-003
   2.6311111111111112         -2.8536370955407619E-003
   2.6411111111111114         -2.2705739829689264E-003
   2.6511111111111112         -1.7474290216341615E-003
   2.6611111111111114         -1.2976072030141950E-003
   2.6711111111111112         -8.9333660434931517E-004
   2.6811111111111114         -4.8929528566077352E-004
   2.6911111111111112         -5.9877478634007275E-005
   2.7011111111111110          3.7434315891005099E-004
   2.7111111111111112          7.4923870852217078E-004
   2.7211111111111110          9.8898587748408318E-004
   2.7311111111111113          1.0485565289855003E-003
   2.7411111111111111          9.4085244927555323E-004
   2.7511111111111113          7.3140847962349653E-004
   2.7611111111111111          5.0342868780717254E-004
   2.7711111111111113          3.1429206137545407E-004
   2.7811111111111111          1.6993563622236252E-004
   2.7911111111111113          3.2244999601971358E-005
   2.8011111111111111         -1.4622788876295090E-004
   2.8111111111111113         -3.8310265517793596E-004
   2.8211111111111111         -6.4809835748746991E-004
   2.8311111111111114         -8.7791768601164222E-004
   2.8411111111111111         -1.0146106360480189E-003
   2.8511111111111114         -1.0425382060930133E-003
   2.8611111111111112         -9.9955534096807241E-004
   2.8711111111111114         -9.5429824432358146E-004
   2.8811111111111112         -9.6325232880190015E-004
   2.8911111111111114         -1.0346666676923633E-003
   2.9011111111111112         -1.1226352071389556E-003
   2.9111111111111114         -1.1558908736333251E-003
   2.9211111111111112         -1.0838201269507408E-003
   2.9311111111111114         -9.1092044021934271E-004
   2.9411111111111112         -6.9775205338373780E-004
   2.9511111111111110         -5.2728096488863230E-004
   2.9611111111111112         -4.5730834244750440E-004
   2.9711111111111110         -4.8859615344554186E-004
   2.9811111111111113         -5.6854542344808578E-004
   2.9911111111111111         -6.2789313960820436E-004
   3.0011111111111113         -6.2698969850316644E-004
   3.0111111111111111         -5.8210286078974605E-004
   3.0211111111111113         -5.5486592464148998E-004
   3.0311111111111111         -6.1150378314778209E-004
   3.0411111111111113         -7.7790935756638646E-004
   3.0511111111111111         -1.0195592185482383E-003
   3.0611111111111113         -1.2596399756148458E-003
   3.0711111111111111         -1.4244227204471827E-003
   3.0811111111111114         -1.4873333275318146E-003
   3.0911111111111111         -1.4836470363661647E-003
   3.1011111111111114         -1.4861478703096509E-003
   3.1111111111111112         -1.5568808885291219E-003
   3.1211111111111109         -1.7055099597200751E-003
   3.1311111111111116         -1.8808720633387566E-003
   3.1411111111111114         -2.0013973116874695E-003
   3.1511111111111112         -2.0053312182426453E-003
   3.1611111111111110         -1.8888909835368395E-003
   3.1711111111111117         -1.7079054377973080E-003
   3.1811111111111114         -1.5415753005072474E-003
   3.1911111111111112         -1.4411866432055831E-003
   3.2011111111111110         -1.3964802492409945E-003
   3.2111111111111108         -1.3415034627541900E-003
   3.2211111111111115         -1.1968727922067046E-003
   3.2311111111111113         -9.2217698693275452E-004
   3.2411111111111111         -5.4551952052861452E-004
   3.2511111111111108         -1.5133652777876705E-004
   3.2611111111111115          1.6620405949652195E-004
   3.2711111111111113          3.5526481224223971E-004
   3.2811111111111111          4.3152930447831750E-004
   3.2911111111111109          4.6129885595291853E-004
   3.3011111111111116          5.1403563702479005E-004
   3.3111111111111113          6.1528349760919809E-004
   3.3211111111111111          7.3051080107688904E-004
   3.3311111111111109          7.9042499419301748E-004
   3.3411111111111116          7.4140873039141297E-004
   3.3511111111111114          5.8813428040593863E-004
   3.3611111111111112          3.9987056516110897E-004
   3.3711111111111109          2.7487112674862146E-004
   3.3811111111111116          2.8408132493495941E-004
   3.3911111111111114          4.2911779019050300E-004
   3.4011111111111112          6.4114737324416637E-004
   3.4111111111111110          8.2199490861967206E-004
   3.4211111111111117          9.0243126032873988E-004
   3.4311111111111114          8.8182650506496429E-004
   3.4411111111111112          8.2507729530334473E-004
   3.4511111111111110          8.1956677604466677E-004
   3.4611111111111117          9.1991777298972011E-004
   3.4711111111111115          1.1156282853335142E-003
   3.4811111111111113          1.3417002046480775E-003
   3.4911111111111111          1.5246649272739887E-003
   3.5011111111111108          1.6336521366611123E-003
   3.5111111111111115          1.7028914298862219E-003
   3.5211111111111113          1.8104205373674631E-003
   3.5311111111111111          2.0260876044631004E-003
   3.5411111111111109          2.3620780557394028E-003
   3.5511111111111116          2.7581877075135708E-003
   3.5611111111111113          3.1123696826398373E-003
   3.5711111111111111          3.3383925911039114E-003
   3.5811111111111109          3.4149899147450924E-003
   3.5911111111111116          3.3958631101995707E-003
   3.6011111111111114          3.3742859959602356E-003
   3.6111111111111112          3.4244717098772526E-003
   3.6211111111111109          3.5563285928219557E-003
   3.6311111111111116          3.7115805316716433E-003
   3.6411111111111114          3.8029353599995375E-003
   3.6511111111111112          3.7707644514739513E-003
   3.6611111111111110          3.6208743695169687E-003
   3.6711111111111117          3.4192888997495174E-003
   3.6811111111111114          3.2476233318448067E-003
   3.6911111111111112          3.1479604076594114E-003
   3.7011111111111110          3.0929523054510355E-003
   3.7111111111111117          3.0008230824023485E-003
   3.7211111111111115          2.7862191200256348E-003
   3.7311111111111113          2.4148006923496723E-003
   3.7411111111111111          1.9268034957349300E-003
   3.7511111111111108          1.4142940053716302E-003
   3.7611111111111115          9.6615188522264361E-004
   3.7711111111111113          6.1529380036517978E-004
   3.7811111111111111          3.2129205646924675E-004
   3.7911111111111109         -8.2928801248272066E-007
   3.8011111111111116         -4.2401091195642948E-004
   3.8111111111111113         -9.6063251839950681E-004
   3.8211111111111111         -1.5525859780609608E-003
   3.8311111111111109         -2.1058493293821812E-003
   3.8411111111111116         -2.5472021661698818E-003
   3.8511111111111114         -2.8668115846812725E-003
   3.8611111111111112         -3.1196593772619963E-003
   3.8711111111111109         -3.3852176275104284E-003
   3.8811111111111116         -3.7115162704139948E-003
   3.8911111111111114         -4.0797386318445206E-003
   3.9011111111111112         -4.4123865664005280E-003
   3.9111111111111110         -4.6202307567000389E-003
   3.9211111111111117         -4.6584811061620712E-003
   3.9311111111111114         -4.5565934851765633E-003
   3.9411111111111112         -4.4027417898178101E-003
   3.9511111111111110         -4.2925896123051643E-003
   3.9611111111111117         -4.2744455859065056E-003
   3.9711111111111115         -4.3249451555311680E-003
   3.9811111111111113         -4.3698763474822044E-003
   3.9911111111111111         -4.3361471034586430E-003
   4.0011111111111113         -4.2013823986053467E-003
   4.0111111111111111         -4.0095653384923935E-003
   4.0211111111111109         -3.8431307766586542E-003
   4.0311111111111106         -3.7698308005928993E-003
   4.0411111111111104         -3.7987555842846632E-003
   4.0511111111111120         -3.8739026058465242E-003
   4.0611111111111118         -3.9095967076718807E-003
   4.0711111111111116         -3.8452867884188890E-003
   4.0811111111111114         -3.6848429590463638E-003
   4.0911111111111111         -3.4952952992171049E-003
   4.1011111111111109         -3.3656554296612740E-003
   4.1111111111111107         -3.3516511321067810E-003
   4.1211111111111105         -3.4409442450851202E-003
   4.1311111111111121         -3.5602417774498463E-003
   4.1411111111111119         -3.6191784311085939E-003
   4.1511111111111116         -3.5628459881991148E-003
   4.1611111111111114         -3.3999131992459297E-003
   4.1711111111111112         -3.1893379054963589E-003
   4.1811111111111110         -2.9953052289783955E-003
   4.1911111111111108         -2.8402050957083702E-003
   4.2011111111111106         -2.6863946113735437E-003
   4.2111111111111121         -2.4587830994278193E-003
   4.2211111111111119         -2.0939919631928205E-003
   4.2311111111111117         -1.5847666654735804E-003
   4.2411111111111115         -9.9126179702579975E-004
   4.2511111111111113         -4.1174975922331214E-004
   4.2611111111111111          6.9168592744972557E-005
   4.2711111111111109          4.2286203824914992E-004
   4.2811111111111106          6.8385392660275102E-004
   4.2911111111111104          9.1865530703216791E-004
   4.3011111111111120          1.1770555283874273E-003
   4.3111111111111118          1.4571738429367542E-003
   4.3211111111111116          1.7060904065147042E-003
   4.3311111111111114          1.8547386862337589E-003
   4.3411111111111111          1.8638473702594638E-003
   4.3511111111111109          1.7509650206193328E-003
   4.3611111111111107          1.5810714103281498E-003
   4.3711111111111105          1.4267866499722004E-003
   4.3811111111111121          1.3236399972811341E-003
   4.3911111111111119          1.2489217333495617E-003
   4.4011111111111116          1.1375440517440438E-003
   4.4111111111111114          9.2485995264723897E-004
   4.4211111111111112          5.8948836522176862E-004
   4.4311111111111110          1.6947313270065933E-004
   4.4411111111111108         -2.5786296464502811E-004
   4.4511111111111106         -6.1921193264424801E-004
   4.4611111111111121         -8.8446401059627533E-004
   4.4711111111111119         -1.0778156574815512E-003
   4.4811111111111117         -1.2550887186080217E-003
   4.4911111111111115         -1.4629131183028221E-003
   4.5011111111111113         -1.7063512932509184E-003
   4.5111111111111111         -1.9453554414212704E-003
   4.5211111111111109         -2.1214643493294716E-003
   4.5311111111111106         -2.1967019420117140E-003
   4.5411111111111104         -2.1791106555610895E-003
   4.5511111111111120         -2.1183108910918236E-003