 -0.88888888888888884          0.0000000000000000     
 -0.87888888888888883          0.0000000000000000     
 -0.86888888888888882          0.0000000000000000     
 -0.85888888888888881          0.0000000000000000     
 -0.84888888888888880          0.0000000000000000     
 -0.83888888888888880          0.0000000000000000     
 -0.82888888888888879          0.0000000000000000     
 -0.81888888888888878          0.0000000000000000     
 -0.80888888888888888          0.0000000000000000     
 -0.79888888888888887          0.0000000000000000     
 -0.78888888888888886          0.0000000000000000     
 -0.77888888888888885          0.0000000000000000     
 -0.76888888888888884          0.0000000000000000     
 -0.75888888888888884          0.0000000000000000     
 -0.74888888888888883          0.0000000000000000     
 -0.73888888888888882          0.0000000000000000     
 -0.72888888888888881          0.0000000000000000     
 -0.71888888888888880          0.0000000000000000     
 -0.70888888888888890          0.0000000000000000     
 -0.69888888888888889          0.0000000000000000     
 -0.68888888888888888          0.0000000000000000     
 -0.67888888888888888          0.0000000000000000     
 -0.66888888888888887          1.4772720465937914E-037
 -0.65888888888888886          3.2857989429352377E-037
 -0.64888888888888885         -3.4382651484243723E-037
 -0.63888888888888884         -1.9089736966639573E-036
 -0.62888888888888883         -3.4787501184091191E-036
 -0.61888888888888882         -1.6206556183773336E-036
 -0.60888888888888881          1.0133130081002378E-035
 -0.59888888888888880          3.1820138460967474E-035
 -0.58888888888888880          3.9060612560041032E-035
 -0.57888888888888879         -2.4142481482433798E-035
 -0.56888888888888878         -2.0132889192850058E-034
 -0.55888888888888877         -4.0547070510432043E-034
 -0.54888888888888876         -3.0233813426307605E-034
 -0.53888888888888875          5.8594536297652397E-034
 -0.52888888888888885          2.3249566445616462E-033
 -0.51888888888888884          3.6835860357443381E-033
 -0.50888888888888884          1.7818808258756418E-033
 -0.49888888888888883         -6.3181770758621906E-033
 -0.48888888888888882         -1.9396035885495884E-032
 -0.47888888888888881         -2.7282427485162611E-032
 -0.46888888888888886         -1.1189694560002501E-032
 -0.45888888888888885          4.4260777119548263E-032
 -0.44888888888888884          1.2708410486061849E-031
 -0.43888888888888883          1.7602755188874365E-031
 -0.42888888888888882          8.8765093158699888E-032
 -0.41888888888888881         -2.1395080990757091E-031
 -0.40888888888888886         -6.7504004418004328E-031
 -0.39888888888888885         -1.0043631560826850E-030
 -0.38888888888888884         -7.1376825722042663E-031
 -0.37888888888888883          6.1732148480325572E-031
 -0.36888888888888882          2.8720684202454432E-030
 -0.35888888888888881          4.9596653252153931E-030
 -0.34888888888888880          4.8311429795066566E-030
 -0.33888888888888880          3.3977095271252422E-031
 -0.32888888888888879         -9.0361044441494916E-030
 -0.31888888888888878         -2.0274830266485596E-029
 -0.30888888888888888         -2.6057961545977440E-029
 -0.29888888888888887         -1.6724763599996604E-029
 -0.28888888888888886          1.4350475659923250E-029
 -0.27888888888888885          6.3207774938856305E-029
 -0.26888888888888884          1.0934513000094711E-028
 -0.25888888888888884          1.1684207712484178E-028
 -0.24888888888888883          4.7236080039770492E-029
 -0.23888888888888882         -1.1574208223710501E-028
 -0.22888888888888881         -3.3737826875605824E-028
 -0.21888888888888880         -5.1533556784252421E-028
 -0.20888888888888879         -4.9517170725202178E-028
 -0.19888888888888878         -1.3162262648304162E-028
 -0.18888888888888877          6.1029325486104522E-028
 -0.17888888888888888          1.5497731965715621E-027
 -0.16888888888888887          2.2436579258465868E-027
 -0.15888888888888886          2.0701807490708787E-027
 -0.14888888888888885          4.8412986939836366E-028
 -0.13888888888888884         -2.5920509490664602E-027
 -0.12888888888888883         -6.3848745368836523E-027
 -0.11888888888888882         -9.1336102869477138E-027
 -0.10888888888888881         -8.4569848751658126E-027
  -9.8888888888888804E-002    -2.3493797316207853E-027
  -8.8888888888888795E-002     9.3642981756864169E-027
  -7.8888888888888786E-002     2.3685406930816973E-026
  -6.8888888888888777E-002     3.4103409112468845E-026
  -5.8888888888888768E-002     3.2143706060576835E-026
  -4.8888888888888871E-002     1.1104002250031073E-026
  -3.8888888888888862E-002    -2.8887978497116567E-026
  -2.8888888888888853E-002    -7.6775258977101126E-026
  -1.8888888888888844E-002    -1.1059967941856999E-025
  -8.8888888888888351E-003    -1.0422567097843257E-025
   1.1111111111111738E-003    -4.0599447555370551E-026
   1.1111111111111183E-002     7.3082496309172595E-026
   2.1111111111111192E-002     1.9721118339311369E-025
   3.1111111111111200E-002     2.6844036810201014E-025
   4.1111111111111209E-002     2.2947152685261053E-025
   5.1111111111111218E-002     7.1570761480857145E-026
   6.1111111111111227E-002    -1.3404462552173846E-025
   7.1111111111111125E-002    -2.4842275146109080E-025
   8.1111111111111134E-002    -1.4288207400555808E-025
   9.1111111111111143E-002     1.7117225309240059E-025
  0.10111111111111115          4.2907362438993267E-025
  0.11111111111111116          1.2965011561183344E-025
  0.12111111111111117         -1.2131235134690344E-024
  0.13111111111111118         -3.5784754089046987E-024
  0.14111111111111119         -5.8935096142856145E-024
  0.15111111111111120         -5.8337459065365233E-024
  0.16111111111111120         -4.6024196248947403E-025
  0.17111111111111121          1.2018483639937557E-023
  0.18111111111111122          2.9664303391825582E-023
  0.19111111111111123          4.4587264021981984E-023
  0.20111111111111124          4.3027231628478637E-023
  0.21111111111111125          9.7074367320020813E-024
  0.22111111111111126         -6.2893816313143213E-023
  0.23111111111111127         -1.6252930260349818E-022
  0.24111111111111128         -2.4819492685394116E-022
  0.25111111111111128         -2.5251364369832583E-022
  0.26111111111111129         -1.0297580104209937E-022
  0.27111111111111108          2.3674470547796680E-022
  0.28111111111111109          7.1579673439718653E-022
  0.29111111111111110          1.1594337806769335E-021
  0.30111111111111111          1.2791044596263913E-021
  0.31111111111111112          7.5696669084307454E-022
  0.32111111111111112         -5.9206507523829779E-022
  0.33111111111111113         -2.6202628132720317E-021
  0.34111111111111114         -4.6964431357726913E-021
  0.35111111111111115         -5.7215812359447997E-021
  0.36111111111111116         -4.4106150756315407E-021
  0.37111111111111117          1.4166852598631443E-022
  0.38111111111111118          7.7341976963011958E-021
  0.39111111111111119          1.6456152441567276E-020
  0.40111111111111120          2.2594750240202792E-020
  0.41111111111111120          2.1406636152828213E-020
  0.42111111111111121          8.8690442602842008E-021
  0.43111111111111122         -1.5898747415393042E-020
  0.44111111111111123         -4.8356975378675730E-020
  0.45111111111111124         -7.7597916661176095E-020
  0.46111111111111125         -8.7913873488432435E-020
  0.47111111111111126         -6.3493382155547391E-020
  0.48111111111111127          4.2938505350133681E-021
  0.49111111111111128          1.0904111969584806E-019
  0.50111111111111128          2.2417364912132490E-019
  0.51111111111111129          3.0423516814062533E-019
  0.52111111111111108          2.9521334184405674E-019
  0.53111111111111109          1.5378321563126476E-019
  0.54111111111111110         -1.2860797368821336E-019
  0.55111111111111111         -5.0488178438819903E-019
  0.56111111111111112         -8.6508249350930196E-019
  0.57111111111111112         -1.0520736503133323E-018
  0.58111111111111113         -9.0407449511534457E-019
  0.59111111111111114         -3.1855022657449732E-019
  0.60111111111111115          6.7913239520495791E-019
  0.61111111111111116          1.8878858925583508E-018
  0.62111111111111117          2.9319644286610518E-018
  0.63111111111111118          3.3312306550651380E-018
  0.64111111111111119          2.6421069003375169E-018
  0.65111111111111120          6.4376551263342895E-019
  0.66111111111111120         -2.4835917980121426E-018
  0.67111111111111121         -6.0596199379174487E-018
  0.68111111111111122         -8.9530952390861018E-018
  0.69111111111111123         -9.8197149960650453E-018
  0.70111111111111124         -7.5133228628497780E-018
  0.71111111111111125         -1.5848156015153533E-018
  0.72111111111111126          7.2823177875433191E-018
  0.73111111111111127          1.7084626421978411E-017
  0.74111111111111128          2.4722165343054052E-017
  0.75111111111111128          2.6704746872137474E-017
  0.76111111111111129          2.0261640211976153E-017
  0.77111111111111130          4.5969172879205424E-018
  0.78111111111111109         -1.8116850219132308E-017
  0.79111111111111110         -4.2467664406709254E-017
  0.80111111111111111         -6.0618614319413449E-017
  0.81111111111111112         -6.4298866596114977E-017
  0.82111111111111112         -4.7653398633147094E-017
  0.83111111111111113         -1.0190501187183778E-017
  0.84111111111111114          4.1254531246506335E-017
  0.85111111111111115          9.2647266013148394E-017
  0.86111111111111116          1.2568571332890847E-016
  0.87111111111111117          1.2341672382145102E-016
  0.88111111111111118          7.7306142762168428E-017
  0.89111111111111119         -6.5330319460937975E-018
  0.90111111111111120         -1.0481738907718388E-016
  0.91111111111111120         -1.8076977466629292E-016
  0.92111111111111121         -1.9494229023508247E-016
  0.93111111111111122         -1.2153448426375395E-016
  0.94111111111111123          3.4470746942342600E-017
  0.95111111111111124          2.2641743898501124E-016
  0.96111111111111125          3.6886627844721714E-016
  0.97111111111111126          3.5929623551134203E-016
  0.98111111111111127          1.1788933091480428E-016
  0.99111111111111128         -3.6342999452195943E-016
   1.0011111111111113         -9.7965607217945835E-016
   1.0111111111111113         -1.5008131041310455E-015
   1.0211111111111113         -1.6092004988528899E-015
   1.0311111111111111         -9.9423139161933672E-016
   1.0411111111111111          5.0669712075077219E-016
   1.0511111111111111          2.7575636171478946E-015
   1.0611111111111111          5.2211004989636666E-015
   1.0711111111111111          6.9702112530660616E-015
   1.0811111111111111          6.8650203489289182E-015
   1.0911111111111111          3.9054258213337169E-015
   1.1011111111111112         -2.2958692510056250E-015
   1.1111111111111112         -1.1048060795208758E-014
   1.1211111111111114         -2.0309701999603885E-014
   1.1311111111111112         -2.6805224977600323E-014
   1.1411111111111114         -2.6668381722773707E-014
   1.1511111111111112         -1.6613868551837614E-014
   1.1611111111111110          4.5589219045357766E-015
   1.1711111111111112          3.4536423335973856E-014
   1.1811111111111110          6.6694357827266904E-014
   1.1911111111111112          9.0505734688401535E-014
   1.2011111111111110          9.3537313040469722E-014
   1.2111111111111112          6.5014088405403181E-014
   1.2211111111111110          3.6640363603219366E-016
   1.2311111111111113         -9.4417407377721252E-014
   1.2411111111111111         -2.0023213772799031E-013
   1.2511111111111113         -2.8572928528411423E-013
   1.2611111111111111         -3.1275475915679141E-013
   1.2711111111111113         -2.4638928050602082E-013
   1.2811111111111111         -6.8092958300982470E-014
   1.2911111111111113          2.1117745681482891E-013
   1.3011111111111111          5.4223509363127143E-013
   1.3111111111111113          8.3792613689639972E-013
   1.3211111111111111          9.8584747136587492E-013
   1.3311111111111114          8.7427488209071424E-013
   1.3411111111111111          4.2811248795147916E-013
   1.3511111111111114         -3.5269280985322782E-013
   1.3611111111111112         -1.3633886771294290E-012
   1.3711111111111114         -2.3857931689269529E-012
   1.3811111111111112         -3.1112987620290911E-012
   1.3911111111111114         -3.2001055451369442E-012
   1.4011111111111112         -2.3720060204207583E-012
   1.4111111111111114         -5.1300147940400165E-013
   1.4211111111111112          2.2280424033516155E-012
   1.4311111111111110          5.3843457470392764E-012
   1.4411111111111112          8.1879789406991144E-012
   1.4511111111111110          9.6781211517127375E-012
   1.4611111111111112          8.9011697318452931E-012
   1.4711111111111110          5.1777397473695697E-012
   1.4811111111111113         -1.6145688301952288E-012
   1.4911111111111111         -1.0813686751598439E-011
   1.5011111111111113         -2.0878484705000311E-011
   1.5111111111111111         -2.9492880360137974E-011
   1.5211111111111113         -3.3901936813407474E-011
   1.5311111111111111         -3.1463085609084729E-011
   1.5411111111111113         -2.0336322903435899E-011
   1.5511111111111111         -1.8114595110377274E-013
   1.5611111111111113          2.7310738739960705E-011
   1.5711111111111111          5.8224036703080628E-011
   1.5811111111111114          8.6711110514059442E-011
   1.5911111111111111          1.0582879711451554E-010
   1.6011111111111114          1.0886847673363675E-010
   1.6111111111111112          9.0994607682137740E-011
   1.6211111111111114          5.0878704027645938E-011
   1.6311111111111112         -8.0787078415855973E-012
   1.6411111111111114         -7.7381462348924401E-011
   1.6511111111111112         -1.4433666761792807E-010
   1.6611111111111114         -1.9454184096989735E-010
   1.6711111111111112         -2.1614794676327875E-010
   1.6811111111111110         -2.0596611916001706E-010
   1.6911111111111112         -1.7739376634295922E-010
   1.7011111111111110         -1.7021016540663680E-010
   1.7111111111111112         -2.6249313833659471E-010
   1.7211111111111110         -5.8543708769676073E-010
   1.7311111111111113         -1.3425519584941981E-009
   1.7411111111111111         -2.8358453363352965E-009
   1.7511111111111113         -5.5032014500966397E-009
   1.7611111111111111         -9.9730401714737127E-009
   1.7711111111111113         -1.7145000086316031E-008
   1.7811111111111111         -2.8308466681892241E-008
   1.7911111111111113         -4.5314781260685777E-008
   1.8011111111111111         -7.0823745090820012E-008
   1.8111111111111113         -1.0865186794717374E-007
   1.8211111111111111         -1.6425661897301325E-007
   1.8311111111111114         -2.4540352683288802E-007
   1.8411111111111111         -3.6307363870946574E-007
   1.8511111111111114         -5.3268473720891052E-007
   1.8611111111111112         -7.7572241252710228E-007
   1.8711111111111114         -1.1218971849302761E-006
   1.8811111111111112         -1.6119815882120747E-006
   1.8911111111111114         -2.3015059014142025E-006
   1.9011111111111112         -3.2655398172209971E-006
   1.9111111111111114         -4.6048289732425474E-006
   1.9211111111111112         -6.4536043282714672E-006
   1.9311111111111110         -8.9894392658607103E-006
   1.9411111111111112         -1.2445566426322330E-005
   1.9511111111111110         -1.7126130842370912E-005
   1.9611111111111112         -2.3424861865350977E-005
   1.9711111111111110         -3.1847630452830344E-005
   1.9811111111111113         -4.3039435695391148E-005
   1.9911111111111111         -5.7816105254460126E-005
   2.0011111111111113         -7.7201075328048319E-005
   2.0111111111111111         -1.0246724559692666E-004
   2.0211111111111113         -1.3518365449272096E-004
   2.0311111111111111         -1.7726644000504166E-004
   2.0411111111111113         -2.3103279818315059E-004
   2.0511111111111111         -2.9925655690021813E-004
   2.0611111111111113         -3.8522225804626942E-004
   2.0711111111111111         -4.9277523066848516E-004
   2.0811111111111114         -6.2636297661811113E-004
   2.0911111111111111         -7.9106347402557731E-004
   2.1011111111111114         -9.9259347189217806E-004
   2.1111111111111112         -1.2372909113764763E-003
   2.1211111111111114         -1.5320646343752742E-003
   2.1311111111111112         -1.8843021243810654E-003
   2.1411111111111114         -2.3017292842268944E-003
   2.1511111111111112         -2.7922156732529402E-003
   2.1611111111111114         -3.3635182771831751E-003
   2.1711111111111112         -4.0229605510830879E-003
   2.1811111111111114         -4.7770449891686440E-003
   2.1911111111111112         -5.6310035288333893E-003
   2.2011111111111110         -6.5882867202162743E-003
   2.2111111111111112         -7.6500112190842628E-003
   2.2211111111111110         -8.8143721222877502E-003
   2.2311111111111113         -1.0076045989990234E-002
   2.2411111111111111         -1.1425614356994629E-002
   2.2511111111111113         -1.2849035672843456E-002
   2.2611111111111111         -1.4327194541692734E-002
   2.2711111111111113         -1.5835579484701157E-002
   2.2811111111111111         -1.7344119027256966E-002
   2.2911111111111113         -1.8817225471138954E-002
   2.3011111111111111         -2.0214052870869637E-002
   2.3111111111111113         -2.1489039063453674E-002
   2.3211111111111111         -2.2592715919017792E-002
   2.3311111111111114         -2.3472815752029419E-002
   2.3411111111111111         -2.4075658991932869E-002
   2.3511111111111114         -2.4347811937332153E-002
   2.3611111111111112         -2.4237958714365959E-002
   2.3711111111111114         -2.3698963224887848E-002
   2.3811111111111112         -2.2690022364258766E-002
   2.3911111111111114         -2.1178849041461945E-002
   2.4011111111111112         -1.9143763929605484E-002
   2.4111111111111114         -1.6575625166296959E-002
   2.4211111111111112         -1.3479466550052166E-002
   2.4311111111111114         -9.8757511004805565E-003
   2.4411111111111112         -5.8011454530060291E-003
   2.4511111111111110         -1.3087320839986205E-003
   2.4611111111111112          3.5323903430253267E-003
   2.4711111111111110          8.6381575092673302E-003
   2.4811111111111113          1.3911246322095394E-002
   2.4911111111111111          1.9243413582444191E-002
   2.5011111111111113          2.4518398568034172E-002
   2.5111111111111111          2.9615303501486778E-002
   2.5211111111111113          3.4412343055009842E-002
   2.5311111111111111          3.8790807127952576E-002
   2.5411111111111113          4.2639080435037613E-002
   2.5511111111111111          4.5856554061174393E-002
   2.5611111111111113          4.8357274383306503E-002
   2.5711111111111111          5.0073124468326569E-002
   2.5811111111111114          5.0956435501575470E-002
   2.5911111111111111          5.0981868058443069E-002
   2.6011111111111114          5.0147514790296555E-002
   2.6111111111111112          4.8475112766027451E-002
   2.6211111111111114          4.6009402722120285E-002
   2.6311111111111112          4.2816616594791412E-002
   2.6411111111111114          3.8982186466455460E-002
   2.6511111111111112          3.4607734531164169E-002
   2.6611111111111114          2.9807526618242264E-002
   2.6711111111111112          2.4704484269022942E-002
   2.6811111111111114          1.9425991922616959E-002
   2.6911111111111112          1.4099615626037121E-002
   2.7011111111111110          8.8489446789026260E-003
   2.7111111111111112          3.7897273432463408E-003
   2.7211111111111110         -9.7356358310207725E-004
   2.7311111111111113         -5.3505976684391499E-003
   2.7411111111111111         -9.2674000188708305E-003
   2.7511111111111113         -1.2667840346693993E-002
   2.7611111111111111         -1.5514384023845196E-002
   2.7711111111111113         -1.7788099125027657E-002
   2.7811111111111111         -1.9487967714667320E-002
   2.7911111111111113         -2.0629588514566422E-002
   2.8011111111111111         -2.1243339404463768E-002
   2.8111111111111113         -2.1372139453887939E-002
   2.8211111111111111         -2.1068923175334930E-002
   2.8311111111111114         -2.0393954589962959E-002
   2.8411111111111111         -1.9412113353610039E-002
   2.8511111111111114         -1.8190251663327217E-002
   2.8611111111111112         -1.6794733703136444E-002
   2.8711111111111114         -1.5289234928786755E-002
   2.8811111111111112         -1.3732863590121269E-002
   2.8911111111111114         -1.2178639881312847E-002
   2.9011111111111112         -1.0672361589968204E-002
   2.9111111111111114         -9.2518525198101997E-003
   2.9211111111111112         -7.9465853050351143E-003
   2.9311111111111114         -6.7776460200548172E-003
   2.9411111111111112         -5.7580107823014259E-003
   2.9511111111111110         -4.8930859193205833E-003
   2.9611111111111112         -4.1814697906374931E-003
   2.9711111111111110         -3.6158829461783171E-003
   2.9811111111111113         -3.1842200551182032E-003
   2.9911111111111111         -2.8706665616482496E-003
   3.0011111111111113         -2.6568360626697540E-003
   3.0111111111111111         -2.5228750891983509E-003
   3.0211111111111113         -2.4485003668814898E-003
   3.0311111111111111         -2.4139289744198322E-003
   3.0411111111111113         -2.4006764870136976E-003
   3.0511111111111111         -2.3921981919556856E-003
   3.0611111111111113         -2.3743684869259596E-003
   3.0711111111111111         -2.3357905447483063E-003
   3.0811111111111114         -2.2679429966956377E-003
   3.0911111111111111         -2.1651808638125658E-003
   3.1011111111111114         -2.0246079657226801E-003
   3.1111111111111112         -1.8458463018760085E-003
   3.1211111111111109         -1.6307311598211527E-003
   3.1311111111111116         -1.3829569797962904E-003
   3.1411111111111114         -1.1076967930421233E-003
   3.1511111111111112         -8.1121682887896895E-004
   3.1611111111111110         -5.0050154095515609E-004
   3.1711111111111117         -1.8290300795342773E-004
   3.1811111111111114          1.3417689478956163E-004
   3.1911111111111112          4.4356376747600734E-004
   3.2011111111111110          7.3854404035955667E-004
   3.2111111111111108          1.0130519513040781E-003
   3.2211111111111115          1.2618091423064470E-003
   3.2311111111111113          1.4804177917540073E-003
   3.2411111111111111          1.6654095379635692E-003
   3.2511111111111108          1.8142529297620058E-003
   3.2611111111111115          1.9253230420872569E-003
   3.2711111111111113          1.9978417549282312E-003
   3.2811111111111111          2.0317954476922750E-003
   3.2911111111111109          2.0278429146856070E-003
   3.3011111111111116          1.9872214179486036E-003
   3.3111111111111113          1.9116621697321534E-003
   3.3211111111111111          1.8033225787803531E-003
   3.3311111111111109          1.6647382872179151E-003
   3.3411111111111116          1.4987936010584235E-003
   3.3511111111111114          1.3087096158415079E-003
   3.3611111111111112          1.0980402585119009E-003
   3.3711111111111109          8.7067042477428913E-004
   3.3811111111111116          6.3080724794417620E-004
   3.3911111111111114          3.8295597187243402E-004
   3.4011111111111112          1.3187475269660354E-004
   3.4111111111111110         -1.1749572877306491E-004
   3.4211111111111117         -3.6012838245369494E-004
   3.4311111111111114         -5.9102836530655622E-004
   3.4411111111111112         -8.0536835594102740E-004
   3.4511111111111110         -9.9863298237323761E-004
   3.4611111111111117         -1.1667630169540644E-003
   3.4711111111111115         -1.3062920188531280E-003
   3.4811111111111113         -1.4144687447696924E-003
   3.4911111111111111         -1.4893602347001433E-003
   3.5011111111111108         -1.5299319056794047E-003
   3.5111111111111115         -1.5361020341515541E-003
   3.5211111111111113         -1.5087687643244863E-003
   3.5311111111111111         -1.4498076634481549E-003
   3.5411111111111109         -1.3620397076010704E-003
   3.5511111111111116         -1.2491701636463404E-003
   3.5611111111111113         -1.1156990658491850E-003
   3.5711111111111111         -9.6680835122242570E-004
   3.5811111111111109         -8.0822926247492433E-004
   3.5911111111111116         -6.4609578112140298E-004
   3.6011111111111114         -4.8679200699552894E-004
   3.6111111111111112         -3.3679968328215182E-004
   3.6211111111111109         -2.0255577692296356E-004
   3.6311111111111116         -9.0327142970636487E-005
   3.6411111111111114         -6.1096175159036648E-006
   3.6511111111111112          4.4443448132369667E-005
   3.6611111111111110          5.6060634960886091E-005
   3.6711111111111117          2.3859636712586507E-005
   3.6811111111111114         -5.6675766245462000E-005
   3.6911111111111112         -1.8974594422616065E-004
   3.7011111111111110         -3.7930964026600122E-004
   3.7111111111111117         -6.2917947070673108E-004
   3.7211111111111115         -9.4313576119020581E-004
   3.7311111111111113         -1.3250564225018024E-003
   3.7411111111111111         -1.7790581332519650E-003
   3.7511111111111108         -2.3096457589417696E-003
   3.7611111111111115         -2.9218606650829315E-003
   3.7711111111111113         -3.6214208230376244E-003
   3.7811111111111111         -4.4148424640297890E-003
   3.7911111111111109         -5.3095342591404915E-003
   3.8011111111111116         -6.3138497062027454E-003
   3.8111111111111113         -7.4370950460433960E-003
   3.8211111111111111         -8.6894789710640907E-003
   3.8311111111111109         -1.0082006454467773E-002
   3.8411111111111116         -1.1626315303146839E-002
   3.8511111111111114         -1.3334457762539387E-002
   3.8611111111111112         -1.5218641608953476E-002
   3.8711111111111109         -1.7290925607085228E-002
   3.8811111111111116         -1.9562905654311180E-002
   3.8911111111111114         -2.2045362740755081E-002
   3.9011111111111112         -2.4747898802161217E-002
   3.9111111111111110         -2.7678566053509712E-002
   3.9211111111111117         -3.0843472108244896E-002
   3.9311111111111114         -3.4246370196342468E-002
   3.9411111111111112         -3.7888251245021820E-002
   3.9511111111111110         -4.1766926646232605E-002
   3.9611111111111117         -4.5876607298851013E-002
   3.9711111111111115         -5.0207562744617462E-002
   3.9811111111111113         -5.4745811969041824E-002
   3.9911111111111111         -5.9472918510437012E-002
   4.0011111111111113         -6.4365923404693604E-002
   4.0111111111111111         -6.9397456943988800E-002
   4.0211111111111109         -7.4536010622978210E-002
   4.0311111111111106         -7.9746432602405548E-002
   4.0411111111111104         -8.4990665316581726E-002
   4.0511111111111120         -9.0228684246540070E-002
   4.0611111111111118         -9.5419637858867645E-002
   4.0711111111111116        -0.10052318871021271     
   4.0811111111111114        -0.10550098121166229     
   4.0911111111111111        -0.11031825095415115     
   4.1011111111111109        -0.11494556814432144     
   4.1111111111111107        -0.11936055868864059     
   4.1211111111111105        -0.12354974448680878     
   4.1311111111111121        -0.12751026451587677     
   4.1411111111111119        -0.13125160336494446     
   4.1511111111111116        -0.13479714095592499     
   4.1611111111111114        -0.13818545639514923     
   4.1711111111111112        -0.14147147536277771     
   4.1811111111111110        -0.14472712576389313     
   4.1911111111111108        -0.14804159104824066     
   4.2011111111111106        -0.15152102708816528     
   4.2111111111111121        -0.15528756380081177     
   4.2211111111111119        -0.15947777032852173     
   4.2311111111111117        -0.16424018144607544     
   4.2411111111111115        -0.16973212361335754     
   4.2511111111111113        -0.17611569166183472     
   4.2611111111111111        -0.18355301022529602     
   4.2711111111111109        -0.19220067560672760     
   4.2811111111111106        -0.20220345258712769     
   4.2911111111111104        -0.21368743479251862     
   4.3011111111111120        -0.22675265371799469     
   4.3111111111111118        -0.24146530032157898     
   4.3211111111111116        -0.25784978270530701     
   4.3311111111111114        -0.27588078379631042     
   4.3411111111111111        -0.29547569155693054     
   4.3511111111111109        -0.31648725271224976     
   4.3611111111111107        -0.33869740366935730     
   4.3711111111111105        -0.36181205511093140     
   4.3811111111111121        -0.38545745611190796     
   4.3911111111111119        -0.40917819738388062     
   4.4011111111111116        -0.43243774771690369     
   4.4111111111111114        -0.45462104678153992     
   4.4211111111111112        -0.47503983974456787     
   4.4311111111111110        -0.49294093251228333     
   4.4411111111111108        -0.50751733779907227     
   4.4511111111111106        -0.51792210340499878     
   4.4611111111111121        -0.52328532934188843     
   4.4711111111111119        -0.52273333072662354     
   4.4811111111111117        -0.51541054248809814     
   4.4911111111111115        -0.50050306320190430     
   4.5011111111111113        -0.47726333141326904     
   4.5111111111111111        -0.44503620266914368     
   4.5211111111111109        -0.40328460931777954     
   4.5311111111111106        -0.35161465406417847     
   4.5411111111111104        -0.28979897499084473     
   4.5511111111111120        -0.21779811382293701     