 -0.88888888888888884          0.0000000000000000     
 -0.87888888888888883          0.0000000000000000     
 -0.86888888888888882          0.0000000000000000     
 -0.85888888888888881          0.0000000000000000     
 -0.84888888888888880          0.0000000000000000     
 -0.83888888888888880          0.0000000000000000     
 -0.82888888888888879          0.0000000000000000     
 -0.81888888888888878          0.0000000000000000     
 -0.80888888888888888          0.0000000000000000     
 -0.79888888888888887          0.0000000000000000     
 -0.78888888888888886          0.0000000000000000     
 -0.77888888888888885          0.0000000000000000     
 -0.76888888888888884          0.0000000000000000     
 -0.75888888888888884          0.0000000000000000     
 -0.74888888888888883         -1.8179157081562998E-038
 -0.73888888888888882         -1.1716926841405129E-037
 -0.72888888888888881         -2.0779749549828195E-037
 -0.71888888888888880          8.8620782956177506E-038
 -0.70888888888888890          1.6586934504070853E-036
 -0.69888888888888889          3.3479516193440658E-036
 -0.68888888888888888         -3.2601332086781730E-036
 -0.67888888888888888         -3.0467413081997283E-035
 -0.66888888888888887         -6.3881901852045132E-035
 -0.65888888888888886         -8.6813536622424698E-036
 -0.64888888888888885          2.9379713465502035E-034
 -0.63888888888888884          8.0754707843514534E-034
 -0.62888888888888883          8.0327029937906769E-034
 -0.61888888888888882         -1.2652361813388688E-033
 -0.60888888888888881         -6.2673376798730959E-033
 -0.59888888888888880         -1.0773661395307569E-032
 -0.58888888888888880         -4.1573752786569998E-033
 -0.57888888888888879          2.6309412036269462E-032
 -0.56888888888888878          7.6039920123195314E-032
 -0.55888888888888877          9.7087710711956766E-032
 -0.54888888888888876         -2.1258931047346229E-033
 -0.53888888888888875         -2.8716438316859262E-031
 -0.52888888888888885         -6.5295899405690904E-031
 -0.51888888888888884         -7.0300213956011547E-031
 -0.50888888888888884          1.4171334364558501E-031
 -0.49888888888888883          2.1311863043684978E-030
 -0.48888888888888882          4.4021529929819754E-030
 -0.47888888888888881          4.5549950942951003E-030
 -0.46888888888888886         -4.5952415758390057E-031
 -0.45888888888888885         -1.1642861908623383E-029
 -0.44888888888888884         -2.4422377577768732E-029
 -0.43888888888888883         -2.7188834507400705E-029
 -0.42888888888888882         -5.5247707867178344E-030
 -0.41888888888888881          4.6478208551060886E-029
 -0.40888888888888886          1.1195884563966148E-028
 -0.39888888888888885          1.4459417391860283E-028
 -0.38888888888888884          8.2094882402444754E-029
 -0.37888888888888883         -1.1463408270303688E-028
 -0.36888888888888882         -4.0823426659740976E-028
 -0.35888888888888881         -6.4921384347643216E-028
 -0.34888888888888880         -5.9926374295903118E-028
 -0.33888888888888880         -4.0473842087738634E-029
 -0.32888888888888879          1.0462217681315115E-027
 -0.31888888888888878          2.3104640059785079E-027
 -0.30888888888888888          2.9939983062499095E-027
 -0.29888888888888887          2.1438273471792745E-027
 -0.28888888888888886         -8.8834914984070934E-028
 -0.27888888888888885         -5.7867226814297644E-027
 -0.26888888888888884         -1.0763978547977529E-026
 -0.25888888888888884         -1.2632188371931480E-026
 -0.24888888888888883         -7.8088262487059102E-027
 -0.23888888888888882          5.7140145889832686E-027
 -0.22888888888888881          2.5972425628617482E-026
 -0.21888888888888880          4.5366589472403524E-026
 -0.20888888888888879          5.1259968998595487E-026
 -0.19888888888888878          3.0096436366717381E-026
 -0.18888888888888877         -2.4927100188282089E-026
 -0.17888888888888888         -1.0472969146711058E-025
 -0.16888888888888887         -1.7832929226263137E-025
 -0.15888888888888886         -1.9607810796228015E-025
 -0.14888888888888885         -1.0720724472542525E-025
 -0.13888888888888884          1.0853648767667430E-025
 -0.12888888888888883          4.0494749689510586E-025
 -0.11888888888888882          6.4993712569667481E-025
 -0.10888888888888881          6.4942135857608000E-025
  -9.8888888888888804E-002     2.3322761409711051E-025
  -8.8888888888888795E-002    -6.0725146768471325E-025
  -7.8888888888888786E-002    -1.5870667553328849E-024
  -6.8888888888888777E-002    -2.1045868234667119E-024
  -5.8888888888888768E-002    -1.4381446075691307E-024
  -4.8888888888888871E-002     7.9815521510251919E-025
  -3.8888888888888862E-002     4.0671814450068099E-024
  -2.8888888888888853E-002     6.5359677962589218E-024
  -1.8888888888888844E-002     5.4061884235026188E-024
  -8.8888888888888351E-003    -1.6774894435557776E-024
   1.1111111111111738E-003    -1.4280840475080982E-023
   1.1111111111111183E-002    -2.6904782748384719E-023
   2.1111111111111192E-002    -2.8652204316757886E-023
   3.1111111111111200E-002    -6.8828965950310919E-024
   4.1111111111111209E-002     4.4347131606989087E-023
   5.1111111111111218E-002     1.1322355227391448E-022
   6.1111111111111227E-002     1.6254736436278412E-022
   7.1111111111111125E-002     1.3432649025633936E-022
   8.1111111111111134E-002    -2.6063175447597009E-023
   9.1111111111111143E-002    -3.2674770155548111E-022
  0.10111111111111115         -6.8189838417965545E-022
  0.11111111111111116         -8.8966566638863433E-022
  0.12111111111111117         -6.7169771847755117E-022
  0.13111111111111118          2.0264096112426514E-022
  0.14111111111111119          1.7227435758771536E-021
  0.15111111111111120          3.4465590938176449E-021
  0.16111111111111120          4.4387727398913719E-021
  0.17111111111111121          3.4733132167549069E-021
  0.18111111111111122         -4.3016784585738614E-022
  0.19111111111111123         -7.2213546022475551E-021
  0.20111111111111124         -1.5081126231911257E-020
  0.21111111111111125         -2.0200715064063870E-020
  0.22111111111111126         -1.7564579309149735E-020
  0.23111111111111127         -2.9692978927492472E-021
  0.24111111111111128          2.4038199796153432E-020
  0.25111111111111128          5.7338189045872529E-020
  0.26111111111111129          8.3161042322719056E-020
  0.27111111111111108          8.2457034073254003E-020
  0.28111111111111109          3.7615282261070272E-020
  0.29111111111111110         -5.7321781142940716E-020
  0.30111111111111111         -1.8614721285937602E-019
  0.31111111111111112         -3.0493545407733390E-019
  0.32111111111111112         -3.4724659543942796E-019
  0.33111111111111113         -2.4380797003240156E-019
  0.34111111111111114          4.4729297254142000E-020
  0.35111111111111115          4.9064259392613464E-019
  0.36111111111111116          9.7331302790363634E-019
  0.37111111111111117          1.2836467919054620E-018
  0.38111111111111118          1.1734602338563811E-018
  0.39111111111111119          4.5101247417629566E-019
  0.40111111111111120         -8.9743585371172368E-019
  0.41111111111111120         -2.6031868117459781E-018
  0.42111111111111121         -4.0857246324464466E-018
  0.43111111111111122         -4.5516494153082717E-018
  0.44111111111111123         -3.2432941181203913E-018
  0.45111111111111124          1.9970982127916032E-019
  0.46111111111111125          5.3732051996959388E-018
  0.47111111111111126          1.0899517394872380E-017
  0.48111111111111127          1.4550156605644510E-017
  0.49111111111111128          1.3808719053846891E-017
  0.50111111111111128          6.8363851329062881E-018
  0.51111111111111129         -6.3971116957906154E-018
  0.52111111111111108         -2.3241569949227011E-017
  0.53111111111111109         -3.8262294716101913E-017
  0.54111111111111110         -4.4307128800569976E-017
  0.55111111111111111         -3.4811803435065564E-017
  0.56111111111111112         -6.8902829808493246E-018
  0.57111111111111112          3.5797786181616522E-017
  0.58111111111111113          8.1764738908057853E-017
  0.59111111111111114          1.1326360458050974E-016
  0.60111111111111115          1.1126870964082785E-016
  0.61111111111111116          6.3159044799241407E-017
  0.62111111111111117         -2.9120790894533383E-017
  0.63111111111111118         -1.4383785438169475E-016
  0.64111111111111119         -2.4078785586099287E-016
  0.65111111111111120         -2.7140375586038115E-016
  0.66111111111111120         -1.9694539080644088E-016
  0.67111111111111121         -1.0097745289195144E-017
  0.68111111111111122          2.4832136689387262E-016
  0.69111111111111123          4.8734702364766212E-016
  0.70111111111111124          5.8609703631432464E-016
  0.71111111111111125          4.3709517939524505E-016
  0.72111111111111126          3.3721932593842233E-018
  0.73111111111111127         -6.3061131761005750E-016
  0.74111111111111128         -1.2407351316875200E-015
  0.75111111111111128         -1.5018481783925903E-015
  0.76111111111111129         -1.0930607606852451E-015
  0.77111111111111130          1.4606619954257380E-016
  0.78111111111111109          2.0549114591595892E-015
  0.79111111111111110          4.0579353740362745E-015
  0.80111111111111111          5.2137347004543432E-015
  0.81111111111111112          4.4570365464752931E-015
  0.82111111111111112          1.0230121947384986E-015
  0.83111111111111113         -5.0418784917200237E-015
  0.84111111111111114         -1.2463180105461678E-014
  0.85111111111111115         -1.8644774038480832E-014
  0.86111111111111116         -2.0101362387765428E-014
  0.87111111111111117         -1.3496604346825182E-014
  0.88111111111111118          2.8491136909442180E-015
  0.89111111111111119          2.7378376597623523E-014
  0.90111111111111120          5.4262106282841269E-014
  0.91111111111111120          7.3601992827288659E-014
  0.92111111111111121          7.3390376892010223E-014
  0.93111111111111122          4.3290004014210487E-014
  0.94111111111111123         -2.0395704642870403E-014
  0.95111111111111124         -1.0995211360310952E-013
  0.96111111111111125         -2.0363618018388874E-013
  0.97111111111111126         -2.6723146807385023E-013
  0.98111111111111127         -2.6111803149396484E-013
  0.99111111111111128         -1.5271941697370117E-013
   1.0011111111111113          6.7887644290831606E-014
   1.0111111111111113          3.7356887873894740E-013
   1.0211111111111113          6.9277521002816811E-013
   1.0311111111111111          9.1504852740148523E-013
   1.0411111111111111          9.1307029211756818E-013
   1.0511111111111111          5.8059210650968085E-013
   1.0611111111111111         -1.2031989174519225E-013
   1.0711111111111111         -1.1153102096386758E-012
   1.0811111111111111         -2.1937022511020476E-012
   1.0911111111111111         -3.0210729751178889E-012
   1.1011111111111112         -3.1994045000122151E-012
   1.1111111111111112         -2.3741635827440044E-012
   1.1211111111111114         -3.7173690232809864E-013
   1.1311111111111112          2.6659080758911768E-012
   1.1411111111111114          6.1944737533847771E-012
   1.1511111111111112          9.2755456093662758E-012
   1.1611111111111110          1.0714370363151815E-011
   1.1711111111111112          9.3338262466269306E-012
   1.1811111111111110          4.3509844165068312E-012
   1.1911111111111112         -4.2214851406208176E-012
   1.2011111111111110         -1.5262763275458724E-011
   1.2111111111111112         -2.6447793607942138E-011
   1.2211111111111110         -3.4475672316958139E-011
   1.2311111111111113         -3.5672204773407046E-011
   1.2411111111111111         -2.6923843363113598E-011
   1.2511111111111113         -6.7896439338854808E-012
   1.2611111111111111          2.3464724954735949E-011
   1.2711111111111113          5.9230190196934984E-011
   1.2811111111111111          9.2628099634950445E-011
   1.2911111111111113          1.1351439926921003E-010
   1.3011111111111111          1.1145179223959190E-010
   1.3111111111111113          7.8441184103716921E-011
   1.3211111111111111          1.1939853619691299E-011
   1.3311111111111114         -8.2522676192464672E-011
   1.3411111111111111         -1.8992092620795376E-010
   1.3511111111111114         -2.8621882641743923E-010
   1.3611111111111112         -3.4121008796184071E-010
   1.3711111111111114         -3.2370631175560050E-010
   1.3811111111111112         -2.0849734438943557E-010
   1.3911111111111114          1.6063489080564430E-011
   1.4011111111111112          3.4143166072198028E-010
   1.4111111111111114          7.3494321739531188E-010
   1.4211111111111112          1.1401034560876155E-009
   1.4311111111111110          1.4819541149790894E-009
   1.4411111111111112          1.6773346045440007E-009
   1.4511111111111110          1.6484957843232451E-009
   1.4611111111111112          1.3371038720677575E-009
   1.4711111111111110          7.1428346570812096E-010
   1.4811111111111113         -2.1871938982176431E-010
   1.4911111111111111         -1.4452973262635282E-009
   1.5011111111111113         -2.9700168990842712E-009
   1.5111111111111111         -4.8831312327024534E-009
   1.5211111111111113         -7.4593025090052834E-009
   1.5311111111111111         -1.1297322188852377E-008
   1.5411111111111113         -1.7508851257730385E-008
   1.5511111111111111         -2.7968045657189577E-008
   1.5611111111111113         -4.5639971801847423E-008
   1.5711111111111111         -7.5015741174411232E-008
   1.5811111111111114         -1.2269659066532768E-007
   1.5911111111111111         -1.9818789098735579E-007
   1.6011111111111114         -3.1499297392656445E-007
   1.6111111111111112         -4.9212337671633577E-007
   1.6211111111111114         -7.5618845585267991E-007
   1.6311111111111112         -1.1442709819675656E-006
   1.6411111111111114         -1.7078568816941697E-006
   1.6511111111111112         -2.5181457203871105E-006
   1.6611111111111114         -3.6731628370034741E-006
   1.6711111111111112         -5.3071562433615327E-006
   1.6811111111111110         -7.6028859439247753E-006
   1.6911111111111112         -1.0807514627231285E-005
   1.7011111111111110         -1.5252915545715950E-005
   1.7111111111111112         -2.1381360056693666E-005
   1.7211111111111110         -2.9777649615425617E-005
   1.7311111111111113         -4.1208895709132776E-005
   1.7411111111111111         -5.6673299695830792E-005
   1.7511111111111113         -7.7459146268665791E-005
   1.7611111111111111         -1.0521542571950704E-004
   1.7711111111111113         -1.4203545288182795E-004
   1.7811111111111111         -1.9055418670177460E-004
   1.7911111111111113         -2.5406019994989038E-004
   1.8011111111111111         -3.3662220812402666E-004
   1.8111111111111113         -4.4322913163341582E-004
   1.8211111111111111         -5.7994172675535083E-004
   1.8311111111111114         -7.5405230745673180E-004
   1.8411111111111111         -9.7424682462587953E-004
   1.8511111111111114         -1.2507622595876455E-003
   1.8611111111111112         -1.5955291455611587E-003
   1.8711111111111114         -2.0222868770360947E-003
   1.8811111111111112         -2.5466559454798698E-003
   1.8911111111111114         -3.1861504539847374E-003
   1.9011111111111112         -3.9601093158125877E-003
   1.9111111111111114         -4.8895268701016903E-003
   1.9211111111111112         -5.9967599809169769E-003
   1.9311111111111110         -7.3050889186561108E-003
   1.9411111111111112         -8.8381106033921242E-003
   1.9511111111111110         -1.0618958622217178E-002
   1.9611111111111112         -1.2669322080910206E-002
   1.9711111111111110         -1.5008277259767056E-002
   1.9811111111111113         -1.7650937661528587E-002
   1.9911111111111111         -2.0606925711035728E-002
   2.0011111111111113         -2.3878732696175575E-002
   2.0111111111111111         -2.7459977194666862E-002
   2.0211111111111113         -3.1333651393651962E-002
   2.0311111111111111         -3.5470433533191681E-002
   2.0411111111111113         -3.9827134460210800E-002
   2.0511111111111111         -4.4345412403345108E-002
   2.0611111111111113         -4.8950854688882828E-002
   2.0711111111111111         -5.3552534431219101E-002
   2.0811111111111114         -5.8043140918016434E-002
   2.0911111111111111         -6.2299817800521851E-002
   2.1011111111111114         -6.6185742616653442E-002
   2.1111111111111112         -6.9552518427371979E-002
   2.1211111111111114         -7.2243414819240570E-002
   2.1311111111111112         -7.4097461998462677E-002
   2.1411111111111114         -7.4954241514205933E-002
   2.1511111111111112         -7.4659384787082672E-002
   2.1611111111111114         -7.3070533573627472E-002
   2.1711111111111112         -7.0063620805740356E-002
   2.1811111111111114         -6.5539151430130005E-002
   2.1911111111111112         -5.9428341686725616E-002
   2.2011111111111110         -5.1698703318834305E-002
   2.2111111111111112         -4.2358830571174622E-002
   2.2211111111111110         -3.1462099403142929E-002
   2.2311111111111113         -1.9108993932604790E-002
   2.2411111111111111         -5.4478412494063377E-003
   2.2511111111111113          9.3262093141674995E-003
   2.2611111111111111          2.4974053725600243E-002
   2.2711111111111113          4.1217375546693802E-002
   2.2811111111111111          5.7745162397623062E-002
   2.2911111111111113          7.4221841990947723E-002
   2.3011111111111111          9.0296819806098938E-002
   2.3111111111111113         0.10561501234769821     
   2.3211111111111111         0.11982806026935577     
   2.3311111111111114         0.13260571658611298     
   2.3411111111111111         0.14364694058895111     
   2.3511111111111114         0.15269026160240173     
   2.3611111111111112         0.15952281653881073     
   2.3711111111111114         0.16398788988590240     
   2.3811111111111112         0.16599033772945404     
   2.3911111111111114         0.16549979150295258     
   2.4011111111111112         0.16255147755146027     
   2.4111111111111114         0.15724463760852814     
   2.4211111111111112         0.14973850548267365     
   2.4311111111111114         0.14024606347084045     
   2.4411111111111112         0.12902598083019257     
   2.4511111111111110         0.11637292802333832     
   2.4611111111111112         0.10260681807994843     
   2.4711111111111110          8.8061481714248657E-002
   2.4811111111111113          7.3073171079158783E-002
   2.4911111111111111          5.7969462126493454E-002
   2.5011111111111113          4.3059043586254120E-002
   2.5111111111111111          2.8622673824429512E-002
   2.5211111111111113          1.4905747026205063E-002
   2.5311111111111111          2.1126468200236559E-003
   2.5411111111111113         -9.5969364047050476E-003
   2.5511111111111111         -2.0109696313738823E-002
   2.5611111111111113         -2.9358457773923874E-002
   2.5711111111111111         -3.7320125848054886E-002
   2.5811111111111114         -4.4012043625116348E-002
   2.5911111111111111         -4.9487039446830750E-002
   2.6011111111111114         -5.3827494382858276E-002
   2.6111111111111112         -5.7138711214065552E-002
   2.6211111111111114         -5.9541966766119003E-002
   2.6311111111111112         -6.1167553067207336E-002
   2.6411111111111114         -6.2148135155439377E-002
   2.6511111111111112         -6.2612682580947876E-002
   2.6611111111111114         -6.2681198120117188E-002
   2.6711111111111112         -6.2460415065288544E-002
   2.6811111111111114         -6.2040548771619797E-002
   2.6911111111111112         -6.1493214219808578E-002
   2.7011111111111110         -6.0870446264743805E-002
   2.7111111111111112         -6.0204815119504929E-002
   2.7211111111111110         -5.9510536491870880E-002
   2.7311111111111113         -5.8785475790500641E-002
   2.7411111111111111         -5.8013778179883957E-002
   2.7511111111111113         -5.7169035077095032E-002
   2.7611111111111111         -5.6217715144157410E-002
   2.7711111111111113         -5.5122680962085724E-002
   2.7811111111111111         -5.3846571594476700E-002
   2.7911111111111113         -5.2354905754327774E-002
   2.8011111111111111         -5.0618752837181091E-002
   2.8111111111111113         -4.8616841435432434E-002
   2.8211111111111111         -4.6337060630321503E-002
   2.8311111111111114         -4.3777320533990860E-002
   2.8411111111111111         -4.0945779532194138E-002
   2.8511111111111114         -3.7860494107007980E-002
   2.8611111111111112         -3.4548606723546982E-002
   2.8711111111111114         -3.1045133247971535E-002
   2.8811111111111112         -2.7391493320465088E-002
   2.8911111111111114         -2.3633854463696480E-002
   2.9011111111111112         -1.9821424037218094E-002
   2.9111111111111114         -1.6004735603928566E-002
   2.9211111111111112         -1.2234024703502655E-002
   2.9311111111111114         -8.5577517747879028E-003
   2.9411111111111112         -5.0212764181196690E-003
   2.9511111111111110         -1.6657294472679496E-003
   2.9611111111111112          1.4729197137057781E-003
   2.9711111111111110          4.3645971454679966E-003
   2.9811111111111113          6.9856508634984493E-003
   2.9911111111111111          9.3191685155034065E-003
   3.0011111111111113          1.1355076916515827E-002
   3.0111111111111111          1.3090022839605808E-002
   3.0211111111111113          1.4527024701237679E-002
   3.0311111111111111          1.5674913302063942E-002
   3.0411111111111113          1.6547575592994690E-002
   3.0511111111111111          1.7163030803203583E-002
   3.0611111111111113          1.7542373389005661E-002
   3.0711111111111111          1.7708646133542061E-002
   3.0811111111111114          1.7685685306787491E-002
   3.0911111111111111          1.7497017979621887E-002
   3.1011111111111114          1.7164861783385277E-002
   3.1111111111111112          1.6709309071302414E-002
   3.1211111111111109          1.6147729009389877E-002
   3.1311111111111116          1.5494422987103462E-002
   3.1411111111111114          1.4760560356080532E-002
   3.1511111111111112          1.3954380527138710E-002
   3.1611111111111110          1.3081635348498821E-002
   3.1711111111111117          1.2146235443651676E-002
   3.1811111111111114          1.1151032522320747E-002
   3.1911111111111112          1.0098662227392197E-002
   3.2011111111111110          8.9923758059740067E-003
   3.2111111111111108          7.8367916867136955E-003
   3.2211111111111115          6.6384905949234962E-003
   3.2311111111111113          5.4064048454165459E-003
   3.2411111111111111          4.1519692167639732E-003
   3.2511111111111108          2.8890257235616446E-003
   3.2611111111111115          1.6334868269041181E-003
   3.2711111111111113          4.0279841050505638E-004
   3.2811111111111111         -7.8474817564710975E-004
   3.2911111111111109         -1.9107869593426585E-003
   3.3011111111111116         -2.9576588422060013E-003
   3.3111111111111113         -3.9091338403522968E-003
   3.3211111111111111         -4.7510159201920033E-003
   3.3311111111111109         -5.4715815931558609E-003
   3.3411111111111116         -6.0618361458182335E-003
   3.3511111111111114         -6.5155755728483200E-003
   3.3611111111111112         -6.8292762152850628E-003
   3.3711111111111109         -7.0018405094742775E-003
   3.3811111111111116         -7.0342458784580231E-003
   3.3911111111111114         -6.9291470572352409E-003
   3.4011111111111112         -6.6904891282320023E-003
   3.4111111111111110         -6.3231796957552433E-003
   3.4211111111111117         -5.8328537270426750E-003
   3.4311111111111114         -5.2257571369409561E-003
   3.4411111111111112         -4.5087537728250027E-003
   3.4511111111111110         -3.6894378717988729E-003
   3.4611111111111117         -2.7763347607105970E-003
   3.4711111111111115         -1.7791484715417027E-003
   3.4811111111111113         -7.0902140578255057E-004
   3.4911111111111111          4.2123699677176774E-004
   3.5011111111111108          1.5969921369105577E-003
   3.5111111111111115          2.8017335571348667E-003
   3.5211111111111113          4.0171616710722446E-003
   3.5311111111111111          5.2234241738915443E-003
   3.5411111111111109          6.3995057716965675E-003
   3.5511111111111116          7.5237415730953217E-003
   3.5611111111111113          8.5744252428412437E-003
   3.5711111111111111          9.5304539427161217E-003
   3.5811111111111109          1.0371963493525982E-002
   3.5911111111111116          1.1080887168645859E-002
   3.6011111111111114          1.1641395278275013E-002
   3.6111111111111112          1.2040169909596443E-002
   3.6211111111111109          1.2266480363905430E-002
   3.6311111111111116          1.2312047183513641E-002
   3.6411111111111114          1.2170698493719101E-002
   3.6511111111111112          1.1837841011583805E-002
   3.6611111111111110          1.1309795081615448E-002
   3.6711111111111117          1.0583054274320602E-002
   3.6811111111111114          9.6535328775644302E-003
   3.6911111111111112          8.5158431902527809E-003
   3.7011111111111110          7.1626477874815464E-003
   3.7111111111111117          5.5840983986854553E-003
   3.7211111111111115          3.7673609331250191E-003
   3.7311111111111113          1.6962157096713781E-003
   3.7411111111111111         -6.4927362836897373E-004
   3.7511111111111108         -3.2930499874055386E-003
   3.7611111111111115         -6.2633180059492588E-003
   3.7711111111111113         -9.5927771180868149E-003
   3.7811111111111111         -1.3318832032382488E-002
   3.7911111111111109         -1.7483754083514214E-002
   3.8011111111111116         -2.2134754806756973E-002
   3.8111111111111113         -2.7323927730321884E-002
   3.8211111111111111         -3.3107984811067581E-002
   3.8311111111111109         -3.9547748863697052E-002
   3.8411111111111116         -4.6707354485988617E-002
   3.8511111111111114         -5.4653130471706390E-002
   3.8611111111111112         -6.3452191650867462E-002
   3.8711111111111109         -7.3170751333236694E-002
   3.8811111111111116         -8.3872139453887939E-002
   3.8911111111111114         -9.5614552497863770E-002
   3.9011111111111112        -0.10844859480857849     
   3.9111111111111110        -0.12241451442241669     
   3.9211111111111117        -0.13753928244113922     
   3.9311111111111114        -0.15383343398571014     
   3.9411111111111112        -0.17128778994083405     
   3.9511111111111110        -0.18986999988555908     
   3.9611111111111117        -0.20952109992504120     
   3.9711111111111115        -0.23015202581882477     
   3.9811111111111113        -0.25164040923118591     
   3.9911111111111111        -0.27382764220237732     
   4.0011111111111113        -0.29651653766632080     
   4.0111111111111111        -0.31946989893913269     
   4.0211111111111109        -0.34240990877151489     
   4.0311111111111106        -0.36501869559288025     
   4.0411111111111104        -0.38694036006927490     
   4.0511111111111120        -0.40778428316116333     
   4.0611111111111118        -0.42712980508804321     
   4.0711111111111116        -0.44453260302543640     
   4.0811111111111114        -0.45953205227851868     
   4.0911111111111111        -0.47165998816490173     
   4.1011111111111109        -0.48045051097869873     
   4.1111111111111107        -0.48545035719871521     
   4.1211111111111105        -0.48622998595237732     
   4.1311111111111121        -0.48239505290985107     
   4.1411111111111119        -0.47359782457351685     
   4.1511111111111116        -0.45954832434654236     
   4.1611111111111114        -0.44002494215965271     
   4.1711111111111112        -0.41488417983055115     
   4.1811111111111110        -0.38406914472579956     
   4.1911111111111108        -0.34761664271354675     
   4.2011111111111106        -0.30566254258155823     
   4.2111111111111121        -0.25844493508338928     
   4.2211111111111119        -0.20630528032779694     
   4.2311111111111117        -0.14968691766262054     
   4.2411111111111115         -8.9131265878677368E-002
   4.2511111111111113         -2.5271367281675339E-002
   4.2611111111111111          4.1176918894052505E-002
   4.2711111111111109         0.10942608863115311     
   4.2811111111111106         0.17863024771213531     
   4.2911111111111104         0.24790015816688538     
   4.3011111111111120         0.31631982326507568     
   4.3111111111111118         0.38296416401863098     
   4.3211111111111116         0.44691735506057739     
   4.3311111111111114         0.50729149580001831     
   4.3411111111111111         0.56324487924575806     
   4.3511111111111109         0.61399978399276733     
   4.3611111111111107         0.65885907411575317     
   4.3711111111111105         0.69722104072570801     
   4.3811111111111121         0.72859233617782593     
   4.3911111111111119         0.75259852409362793     
   4.4011111111111116         0.76899176836013794     
   4.4111111111111114         0.77765589952468872     
   4.4211111111111112         0.77860766649246216     
   4.4311111111111110         0.77199560403823853     
   4.4411111111111108         0.75809502601623535     
   4.4511111111111106         0.73730057477951050     
   4.4611111111111121         0.71011579036712646     
   4.4711111111111119         0.67714023590087891     
   4.4811111111111117         0.63905423879623413     
   4.4911111111111115         0.59660243988037109     
   4.5011111111111113         0.55057591199874878     
   4.5111111111111111         0.50179415941238403     
   4.5211111111111109         0.45108655095100403     
   4.5311111111111106         0.39927473664283752     
   4.5411111111111104         0.34715583920478821     
   4.5511111111111120         0.29548710584640503     