 -0.88888888888888884          4.2040291791328024E-028
 -0.87888888888888883          7.4873675745439339E-024
 -0.86888888888888882          5.7139429419241471E-022
 -0.85888888888888881          3.6940516138728675E-020
 -0.84888888888888880          1.4403210037775996E-019
 -0.83888888888888880          3.2352173715230587E-019
 -0.82888888888888879          7.5202422286737841E-019
 -0.81888888888888878          2.2020011127304626E-018
 -0.80888888888888888          6.0653609849588730E-018
 -0.79888888888888887          1.3259275085306506E-017
 -0.78888888888888886          2.2273882783464501E-017
 -0.77888888888888885          2.8156443884084362E-017
 -0.76888888888888884          2.4674878736156846E-017
 -0.75888888888888884          9.8658220434087511E-018
 -0.74888888888888883         -8.9156421553109258E-018
 -0.73888888888888882         -1.7628998946183234E-017
 -0.72888888888888881         -1.1250594353535812E-017
 -0.71888888888888880         -1.7688385551080866E-017
 -0.70888888888888890         -1.0821673081786240E-016
 -0.69888888888888889         -3.6120285373605226E-016
 -0.68888888888888888         -7.6115344140248930E-016
 -0.67888888888888888         -1.0735162165811810E-015
 -0.66888888888888887         -8.1894199953111793E-016
 -0.65888888888888886          4.9579395383503723E-016
 -0.64888888888888885          2.8527169691018378E-015
 -0.63888888888888884          5.1718336746195675E-015
 -0.62888888888888883          5.3361728894634787E-015
 -0.61888888888888882          1.3905172382999188E-015
 -0.60888888888888881         -6.1792069941737915E-015
 -0.59888888888888880         -1.2477833775449178E-014
 -0.58888888888888880         -9.0183123555714895E-015
 -0.57888888888888879          1.0691154992553686E-014
 -0.56888888888888878          4.1801990742582756E-014
 -0.55888888888888877          6.0761413804046038E-014
 -0.54888888888888876          2.9045373013203771E-014
 -0.53888888888888875         -8.5109802777476318E-014
 -0.52888888888888885         -2.7026045789323161E-013
 -0.51888888888888884         -4.3919910568644693E-013
 -0.50888888888888884         -4.3029271010013026E-013
 -0.49888888888888883         -6.8449227134861207E-014
 -0.48888888888888882          7.1526253886747271E-013
 -0.47888888888888881          1.7493815640881594E-012
 -0.46888888888888886          2.5555577619351677E-012
 -0.45888888888888885          2.4371041209420019E-012
 -0.44888888888888884          7.6147606015847247E-013
 -0.43888888888888883         -2.6213061669194682E-012
 -0.42888888888888882         -6.9911893114948942E-012
 -0.41888888888888881         -1.0632513099129159E-011
 -0.40888888888888886         -1.1168845362452551E-011
 -0.39888888888888885         -6.4105643536593870E-012
 -0.38888888888888884          4.4589171764586322E-012
 -0.37888888888888883          1.9760967168158672E-011
 -0.36888888888888882          3.4800953785385502E-011
 -0.35888888888888881          4.2447649561960787E-011
 -0.34888888888888880          3.5064527670325418E-011
 -0.33888888888888880          7.6108928187545999E-012
 -0.32888888888888879         -3.8809525038097092E-011
 -0.31888888888888878         -9.4183986998341851E-011
 -0.30888888888888888         -1.3913115104458029E-010
 -0.29888888888888887         -1.4811973869655048E-010
 -0.28888888888888886         -9.6970230456516759E-011
 -0.27888888888888885          2.6187271101596465E-011
 -0.26888888888888884          2.0920071230889903E-010
 -0.25888888888888884          4.0789208122227194E-010
 -0.24888888888888883          5.4704757390666714E-010
 -0.23888888888888882          5.3471493899337474E-010
 -0.22888888888888881          2.9085009400908746E-010
 -0.21888888888888880         -2.1396240335036509E-010
 -0.20888888888888879         -9.2013058283768601E-010
 -0.19888888888888878         -1.6562914373352555E-009
 -0.18888888888888877         -2.1485497825324273E-009
 -0.17888888888888888         -2.0734605143957197E-009
 -0.16888888888888887         -1.1554391887713678E-009
 -0.15888888888888886          7.0674888164035110E-010
 -0.14888888888888885          3.3170721724928853E-009
 -0.13888888888888884          6.1085247970993350E-009
 -0.12888888888888883          8.1667366202964331E-009
 -0.11888888888888882          8.3859115207474133E-009
 -0.10888888888888881          5.7616484916422905E-009
  -9.8888888888888804E-002    -2.1936828742408210E-010
  -8.8888888888888795E-002    -9.1821839021122287E-009
  -7.8888888888888786E-002    -1.9588021871186356E-008
  -6.8888888888888777E-002    -2.8722634937139446E-008
  -5.8888888888888768E-002    -3.3062626414448459E-008
  -4.8888888888888871E-002    -2.9057648731622976E-008
  -3.8888888888888862E-002    -1.4248632496105529E-008
  -2.8888888888888853E-002     1.1494933893629877E-008
  -1.8888888888888844E-002     4.4955839939575526E-008
  -8.8888888888888351E-003     7.9164969690737053E-008
   1.1111111111111738E-003     1.0396899341458266E-007
   1.1111111111111183E-002     1.0776542325174887E-007
   2.1111111111111192E-002     8.0325882834131335E-008
   3.1111111111111200E-002     1.6284600334870447E-008
   4.1111111111111209E-002    -8.1464946788400994E-008
   5.1111111111111218E-002    -1.9944729956478113E-007
   6.1111111111111227E-002    -3.1335622452388634E-007
   7.1111111111111125E-002    -3.9062192058736400E-007
   8.1111111111111134E-002    -3.9599083834218618E-007
   9.1111111111111143E-002    -2.9954728120173968E-007
  0.10111111111111115         -8.5755210932347836E-008
  0.11111111111111116          2.3862955345066439E-007
  0.12111111111111117          6.4031132751551922E-007
  0.13111111111111118          1.0612620826577768E-006
  0.14111111111111119          1.4282090887718368E-006
  0.15111111111111120          1.6700736296115792E-006
  0.16111111111111120          1.7419122286810307E-006
  0.17111111111111121          1.6521491943422006E-006
  0.18111111111111122          1.4885204109305050E-006
  0.19111111111111123          1.4375824548551464E-006
  0.20111111111111124          1.7931835145645891E-006
  0.21111111111111125          2.9510231343010673E-006
  0.22111111111111126          5.3891590141574852E-006
  0.23111111111111127          9.6376315923407674E-006
  0.24111111111111128          1.6243591744569130E-005
  0.25111111111111128          2.5740677301655523E-005
  0.26111111111111129          3.8632399082416669E-005
  0.27111111111111108          5.5398293625330552E-005
  0.28111111111111109          7.6528951467480510E-005
  0.29111111111111110          1.0259154078084975E-004
  0.30111111111111111          1.3432257401291281E-004
  0.31111111111111112          1.7273960111197084E-004
  0.32111111111111112          2.1926018234807998E-004
  0.33111111111111113          2.7581403264775872E-004
  0.34111111111111114          3.4493545535951853E-004
  0.35111111111111115          4.2982489685527980E-004
  0.36111111111111116          5.3437292808666825E-004
  0.37111111111111117          6.6314399009570479E-004
  0.38111111111111118          8.2132127135992050E-004
  0.39111111111111119          1.0146161075681448E-003
  0.40111111111111120          1.2491458328440785E-003
  0.41111111111111120          1.5312827890738845E-003
  0.42111111111111121          1.8674737075343728E-003
  0.43111111111111122          2.2640277165919542E-003
  0.44111111111111123          2.7268677949905396E-003
  0.45111111111111124          3.2612443901598454E-003
  0.46111111111111125          3.8714101538062096E-003
  0.47111111111111126          4.5602601021528244E-003
  0.48111111111111127          5.3289509378373623E-003
  0.49111111111111128          6.1765173450112343E-003
  0.50111111111111128          7.0995059795677662E-003
  0.51111111111111129          8.0916509032249451E-003
  0.52111111111111108          9.1436123475432396E-003
  0.53111111111111109          1.0242790915071964E-002
  0.54111111111111110          1.1373228393495083E-002
  0.55111111111111111          1.2515590526163578E-002
  0.56111111111111112          1.3647236861288548E-002
  0.57111111111111112          1.4742362312972546E-002
  0.58111111111111113          1.5772217884659767E-002
  0.59111111111111114          1.6705418005585670E-002
  0.60111111111111115          1.7508337274193764E-002
  0.61111111111111116          1.8145646899938583E-002
  0.62111111111111117          1.8580993637442589E-002
  0.63111111111111118          1.8777860328555107E-002
  0.64111111111111119          1.8700620159506798E-002
  0.65111111111111120          1.8315773457288742E-002
  0.66111111111111120          1.7593342810869217E-002
  0.67111111111111121          1.6508376225829124E-002
  0.68111111111111122          1.5042459592223167E-002
  0.69111111111111123          1.3185180723667145E-002
  0.70111111111111124          1.0935415513813496E-002
  0.71111111111111125          8.3023607730865479E-003
  0.72111111111111126          5.3062415681779385E-003
  0.73111111111111127          1.9786325283348560E-003
  0.74111111111111128         -1.6376298153772950E-003
  0.75111111111111128         -5.4889470338821411E-003
  0.76111111111111129         -9.5118647441267967E-003
  0.77111111111111130         -1.3634352944791317E-002
  0.78111111111111109         -1.7777437344193459E-002
  0.79111111111111110         -2.1857136860489845E-002
  0.80111111111111111         -2.5786675512790680E-002
  0.81111111111111112         -2.9478916898369789E-002
  0.82111111111111112         -3.2848969101905823E-002
  0.83111111111111113         -3.5816855728626251E-002
  0.84111111111111114         -3.8310188800096512E-002
  0.85111111111111115         -4.0266670286655426E-002
  0.86111111111111116         -4.1636325418949127E-002
  0.87111111111111117         -4.2383320629596710E-002
  0.88111111111111118         -4.2487259954214096E-002
  0.89111111111111119         -4.1943863034248352E-002
  0.90111111111111120         -4.0764998644590378E-002
  0.91111111111111120         -3.8978107273578644E-002
  0.92111111111111121         -3.6625038832426071E-002
  0.93111111111111122         -3.3760435879230499E-002
  0.94111111111111123         -3.0449789017438889E-002
  0.95111111111111124         -2.6767291128635406E-002
  0.96111111111111125         -2.2793602198362350E-002
  0.97111111111111126         -1.8613612279295921E-002
  0.98111111111111127         -1.4314270578324795E-002
  0.99111111111111128         -9.9824909120798111E-003
   1.0011111111111113         -5.7031512260437012E-003
   1.0111111111111113         -1.5571798430755734E-003
   1.0211111111111113          2.3802625946700573E-003
   1.0311111111111111          6.0414825566112995E-003
   1.0411111111111111          9.3677928671240807E-003
   1.0511111111111111          1.2310827150940895E-002
   1.0611111111111111          1.4833563007414341E-002
   1.0711111111111111          1.6910996288061142E-002
   1.0811111111111111          1.8530426546931267E-002
   1.0911111111111111          1.9691329449415207E-002
   1.1011111111111112          2.0404854789376259E-002
   1.1111111111111112          2.0692983642220497E-002
   1.1211111111111114          2.0587414503097534E-002
   1.1311111111111112          2.0128259435296059E-002
   1.1411111111111114          1.9362606108188629E-002
   1.1511111111111112          1.8342996016144753E-002
   1.1611111111111110          1.7125830054283142E-002
   1.1711111111111112          1.5769720077514648E-002
   1.1811111111111110          1.4333768747746944E-002
   1.1911111111111112          1.2875784188508987E-002
   1.2011111111111110          1.1450440622866154E-002
   1.2111111111111112          1.0107449255883694E-002
   1.2211111111111110          8.8898129761219025E-003
   1.2311111111111113          7.8322831541299820E-003
   1.2411111111111111          6.9601321592926979E-003
   1.2511111111111113          6.2883654609322548E-003
   1.2611111111111111          5.8214566670358181E-003
   1.2711111111111113          5.5536432191729546E-003
   1.2811111111111111          5.4697780869901180E-003
   1.2911111111111113          5.5466620251536369E-003
   1.3011111111111111          5.7547371834516525E-003
   1.3111111111111113          6.0599972493946552E-003
   1.3211111111111111          6.4259506762027740E-003
   1.3311111111111114          6.8154931068420410E-003
   1.3411111111111111          7.1925763040781021E-003
   1.3511111111111114          7.5236055999994278E-003
   1.3611111111111112          7.7785388566553593E-003
   1.3711111111111114          7.9317120835185051E-003
   1.3811111111111112          7.9624243080615997E-003
   1.3911111111111114          7.8553445637226105E-003
   1.4011111111111112          7.6007721945643425E-003
   1.4111111111111114          7.1947816759347916E-003
   1.4211111111111112          6.6392472945153713E-003
   1.4311111111111110          5.9417211450636387E-003
   1.4411111111111112          5.1151281222701073E-003
   1.4511111111111110          4.1772332042455673E-003
   1.4611111111111112          3.1498610042035580E-003
   1.4711111111111110          2.0578710827976465E-003
   1.4811111111111113          9.2793017392978072E-004
   1.4911111111111111         -2.1283599198795855E-004
   1.5011111111111113         -1.3382019242271781E-003
   1.5111111111111111         -2.4240834172815084E-003
   1.5211111111111113         -3.4495391882956028E-003
   1.5311111111111111         -4.3974383734166622E-003
   1.5411111111111113         -5.2547422237694263E-003
   1.5511111111111111         -6.0124043375253677E-003
   1.5611111111111113         -6.6649466753005981E-003
   1.5711111111111111         -7.2098122909665108E-003
   1.5811111111111114         -7.6466221362352371E-003
   1.5911111111111111         -7.9764565452933311E-003
   1.6011111111111114         -8.2012712955474854E-003
   1.6111111111111112         -8.3235036581754684E-003
   1.6211111111111114         -8.3458814769983292E-003
   1.6311111111111112         -8.2714017480611801E-003
   1.6411111111111114         -8.1033958122134209E-003
   1.6511111111111112         -7.8456178307533264E-003
   1.6611111111111114         -7.5022629462182522E-003
   1.6711111111111112         -7.0778969675302505E-003
   1.6811111111111110         -6.5773003734648228E-003
   1.6911111111111112         -6.0052801854908466E-003
   1.7011111111111110         -5.3665419109165668E-003
   1.7111111111111112         -4.6657039783895016E-003
   1.7211111111111110         -3.9075212553143501E-003
   1.7311111111111113         -3.0973255634307861E-003
   1.7411111111111111         -2.2416331339627504E-003
   1.7511111111111113         -1.3487959513440728E-003
   1.7611111111111111         -4.2954279342666268E-004
   1.7711111111111113          5.0275842659175396E-004
   1.7811111111111111          1.4322453644126654E-003
   1.7911111111111113          2.3411735892295837E-003
   1.8011111111111111          3.2109571620821953E-003
   1.8111111111111113          4.0235039778053761E-003
   1.8211111111111111          4.7626290470361710E-003
   1.8311111111111114          5.4152999073266983E-003
   1.8411111111111111          5.9724766761064529E-003
   1.8511111111111114          6.4293886534869671E-003
   1.8611111111111112          6.7851976491510868E-003
   1.8711111111111114          7.0421290583908558E-003
   1.8811111111111112          7.2042634710669518E-003
   1.8911111111111114          7.2762612253427505E-003
   1.9011111111111112          7.2623016312718391E-003
   1.9111111111111114          7.1654692292213440E-003
   1.9211111111111112          6.9877183996140957E-003
   1.9311111111111110          6.7304018884897232E-003
   1.9411111111111112          6.3952235504984856E-003
   1.9511111111111110          5.9853740967810154E-003
   1.9611111111111112          5.5065606720745564E-003
   1.9711111111111110          4.9676746129989624E-003
   1.9811111111111113          4.3809204362332821E-003
   1.9911111111111111          3.7613611202687025E-003
   2.0011111111111113          3.1259683892130852E-003
   2.0111111111111111          2.4923761375248432E-003
   2.0211111111111113          1.8775962525978684E-003
   2.0311111111111111          1.2969486415386200E-003
   2.0411111111111113          7.6338782673701644E-004
   2.0511111111111111          2.8729587211273611E-004
   2.0611111111111113         -1.2331621837802231E-004
   2.0711111111111111         -4.6236123307608068E-004
   2.0811111111111114         -7.2520220419391990E-004
   2.0911111111111111         -9.0836512390524149E-004
   2.1011111111111114         -1.0095805628225207E-003
   2.1111111111111112         -1.0281866416335106E-003
   2.1211111111111114         -9.6579955425113440E-004
   2.1311111111111112         -8.2705885870382190E-004
   2.1411111111111114         -6.2019948381930590E-004
   2.1511111111111112         -3.5721962922252715E-004
   2.1611111111111114         -5.3490490245167166E-005
   2.1711111111111112          2.7322204550728202E-004
   2.1811111111111114          6.0421321541070938E-004
   2.1911111111111112          9.2154287267476320E-004
   2.2011111111111110          1.2096853461116552E-003
   2.2111111111111112          1.4568255282938480E-003
   2.2211111111111110          1.6555684851482511E-003
   2.2311111111111113          1.8029554048553109E-003
   2.2411111111111111          1.8998289015144110E-003
   2.2511111111111113          1.9497302128002048E-003
   2.2611111111111111          1.9576053600758314E-003
   2.2711111111111113          1.9286285387352109E-003
   2.2811111111111111          1.8674043240025640E-003
   2.2911111111111113          1.7777085304260254E-003
   2.3011111111111111          1.6627847217023373E-003
   2.3111111111111113          1.5260730870068073E-003
   2.3211111111111111          1.3721366412937641E-003
   2.3311111111111114          1.2074970873072743E-003
   2.3411111111111111          1.0411062976345420E-003
   2.3511111111111114          8.8425859576091170E-004
   2.3611111111111112          7.4986863182857633E-004
   2.3711111111111114          6.5118394559249282E-004
   2.3811111111111112          6.0012604808434844E-004
   2.3911111111111114          6.0553953517228365E-004
   2.4011111111111112          6.7166052758693695E-004
   2.4111111111111114          7.9708104021847248E-004
   2.4211111111111112          9.7439991077408195E-004
   2.4311111111111114          1.1906296713277698E-003
   2.4411111111111112          1.4283002819865942E-003
   2.4511111111111110          1.6670871991664171E-003
   2.4611111111111112          1.8857134273275733E-003
   2.4711111111111110          2.0638552960008383E-003
   2.4811111111111113          2.1838000975549221E-003
   2.4911111111111111          2.2316768299788237E-003
   2.5011111111111113          2.1981722675263882E-003
   2.5111111111111111          2.0787450484931469E-003
   2.5211111111111113          1.8734362674877048E-003
   2.5311111111111111          1.5864302404224873E-003
   2.5411111111111113          1.2255342444404960E-003
   2.5511111111111111          8.0171978333964944E-004
   2.5611111111111113          3.2880451180972159E-004
   2.5711111111111111         -1.7672583635430783E-004
   2.5811111111111114         -6.9583911681547761E-004
   2.5911111111111111         -1.2071658857166767E-003
   2.6011111111111114         -1.6874627908691764E-003
   2.6111111111111112         -2.1124717313796282E-003
   2.6211111111111114         -2.4582433979958296E-003
   2.6311111111111112         -2.7028869371861219E-003
   2.6411111111111114         -2.8285910375416279E-003
   2.6511111111111112         -2.8236531652510166E-003
   2.6611111111111114         -2.6841948274523020E-003
   2.6711111111111112         -2.4152402766048908E-003
   2.6811111111111114         -2.0309025421738625E-003
   2.6911111111111112         -1.5535558341071010E-003
   2.7011111111111110         -1.0120385559275746E-003
   2.7111111111111112         -4.3911114335060120E-004
   2.7211111111111110          1.3146270066499710E-004
   2.7311111111111113          6.6776899620890617E-004
   2.7411111111111111          1.1420955415815115E-003
   2.7511111111111113          1.5324479900300503E-003
   2.7611111111111111          1.8230673158541322E-003
   2.7711111111111113          2.0039912778884172E-003
   2.7811111111111111          2.0698981825262308E-003
   2.7911111111111113          2.0186100155115128E-003
   2.8011111111111111          1.8496821867302060E-003
   2.8111111111111113          1.5634559094905853E-003
   2.8211111111111111          1.1608068598434329E-003
   2.8311111111111114          6.4363051205873489E-004
   2.8411111111111111          1.5899962818366475E-005
   2.8511111111111114         -7.1502884384244680E-004
   2.8611111111111112         -1.5372639754787087E-003
   2.8711111111111114         -2.4337533395737410E-003
   2.8811111111111112         -3.3824404235929251E-003
   2.8911111111111114         -4.3572690337896347E-003
   2.9011111111111112         -5.3298929706215858E-003
   2.9111111111111114         -6.2717786058783531E-003
   2.9211111111111112         -7.1562929078936577E-003
   2.9311111111111114         -7.9603763297200203E-003
   2.9411111111111112         -8.6655039340257645E-003
   2.9511111111111110         -9.2578260228037834E-003
   2.9611111111111112         -9.7275739535689354E-003
   2.9711111111111110         -1.0068004950881004E-002
   2.9811111111111113         -1.0274255648255348E-002
   2.9911111111111111         -1.0342479683458805E-002
   3.0011111111111113         -1.0269552469253540E-002
   3.0111111111111111         -1.0053452104330063E-002
   3.0211111111111113         -9.6942270174622536E-003
   3.0311111111111111         -9.1952867805957794E-003
   3.0411111111111113         -8.5646426305174828E-003
   3.0511111111111111         -7.8157037496566772E-003
   3.0611111111111113         -6.9673373363912106E-003
   3.0711111111111111         -6.0430462472140789E-003
   3.0811111111111114         -5.0693172961473465E-003
   3.0911111111111111         -4.0733907371759415E-003
   3.1011111111111114         -3.0808215960860252E-003
   3.1111111111111112         -2.1132568363100290E-003
   3.1211111111111109         -1.1868034489452839E-003
   3.1311111111111116         -3.1124203815124929E-004
   3.1411111111111114          5.0983269466087222E-004
   3.1511111111111112          1.2780348770320415E-003
   3.1611111111111110          1.9986103288829327E-003
   3.1711111111111117          2.6785761583596468E-003
   3.1811111111111114          3.3249100670218468E-003
   3.1911111111111112          3.9430689066648483E-003
   3.2011111111111110          4.5360215008258820E-003
   3.2111111111111108          5.1038633100688457E-003
   3.2211111111111115          5.6439773179590702E-003
   3.2311111111111113          6.1516189016401768E-003
   3.2411111111111111          6.6207530908286572E-003
   3.2511111111111108          7.0449598133563995E-003
   3.2611111111111115          7.4182432144880295E-003
   3.2711111111111113          7.7356072142720222E-003
   3.2811111111111111          7.9933209344744682E-003
   3.2911111111111109          8.1888446584343910E-003
   3.3011111111111116          8.3204405382275581E-003
   3.3111111111111113          8.3865579217672348E-003
   3.3211111111111111          8.3851134404540062E-003
   3.3311111111111109          8.3128251135349274E-003
   3.3411111111111116          8.1647736951708794E-003
   3.3511111111111114          7.9343281686306000E-003
   3.3611111111111112          7.6135317794978619E-003
   3.3711111111111109          7.1939653716981411E-003
   3.3811111111111116          6.6679879091680050E-003
   3.3911111111111114          6.0301753692328930E-003
   3.4011111111111112          5.2787116728723049E-003
   3.4111111111111110          4.4164564460515976E-003
   3.4211111111111117          3.4514768049120903E-003
   3.4311111111111114          2.3969167377799749E-003
   3.4411111111111112          1.2702324893325567E-003
   3.4511111111111110          9.1955655079800636E-005
   3.4611111111111117         -1.1157392291352153E-003
   3.4711111111111115         -2.3303462658077478E-003
   3.4811111111111113         -3.5299446899443865E-003
   3.4911111111111111         -4.6935691498219967E-003
   3.5011111111111108         -5.8010560460388660E-003
   3.5111111111111115         -6.8325647152960300E-003
   3.5211111111111113         -7.7681113034486771E-003
   3.5311111111111111         -8.5874916985630989E-003
   3.5411111111111109         -9.2709148302674294E-003
   3.5511111111111116         -9.8004853352904320E-003
   3.5611111111111113         -1.0162466205656528E-002
   3.5711111111111111         -1.0349981486797333E-002
   3.5811111111111109         -1.0365658439695835E-002
   3.5911111111111116         -1.0223618708550930E-002
   3.6011111111111114         -9.9503044039011002E-003
   3.6111111111111112         -9.5838084816932678E-003
   3.6211111111111109         -9.1716879978775978E-003
   3.6311111111111116         -8.7675265967845917E-003
   3.6411111111111114         -8.4267929196357727E-003
   3.6511111111111112         -8.2026543095707893E-003
   3.6611111111111110         -8.1424135714769363E-003
   3.6711111111111117         -8.2850372418761253E-003
   3.6811111111111114         -8.6599942296743393E-003
   3.6911111111111112         -9.2872902750968933E-003
   3.7011111111111110         -1.0178326629102230E-002
   3.7111111111111117         -1.1337037198245525E-002
   3.7211111111111115         -1.2760775163769722E-002
   3.7311111111111113         -1.4440533705055714E-002
   3.7411111111111111         -1.6360353678464890E-002
   3.7511111111111108         -1.8496040254831314E-002
   3.7611111111111115         -2.0813569426536560E-002
   3.7711111111111113         -2.3267688229680061E-002
   3.7811111111111111         -2.5801219046115875E-002
   3.7911111111111109         -2.8345435857772827E-002
   3.8011111111111116         -3.0821647495031357E-002
   3.8111111111111113         -3.3143840730190277E-002
   3.8211111111111111         -3.5222046077251434E-002
   3.8311111111111109         -3.6965906620025635E-002
   3.8411111111111116         -3.8288004696369171E-002
   3.8511111111111114         -3.9106607437133789E-002
   3.8611111111111112         -3.9347644895315170E-002
   3.8711111111111109         -3.8946039974689484E-002
   3.8811111111111116         -3.7846643477678299E-002
   3.8911111111111114         -3.6005079746246338E-002
   3.9011111111111112         -3.3388819545507431E-002
   3.9111111111111110         -2.9978645965456963E-002
   3.9211111111111117         -2.5770490989089012E-002
   3.9311111111111114         -2.0777456462383270E-002
   3.9411111111111112         -1.5031679533421993E-002
   3.9511111111111110         -8.5856989026069641E-003
   3.9611111111111117         -1.5130077954381704E-003
   3.9711111111111115          6.0923798009753227E-003
   3.9811111111111113          1.4117365702986717E-002
   3.9911111111111111          2.2432085126638412E-002
   4.0011111111111113          3.0892901122570038E-002
   4.0111111111111111          3.9345838129520416E-002
   4.0211111111111109          4.7630313783884048E-002
   4.0311111111111106          5.5583041161298752E-002
   4.0411111111111104          6.3042134046554565E-002
   4.0511111111111120          6.9851383566856384E-002
   4.0611111111111118          7.5864769518375397E-002
   4.0711111111111116          8.0951020121574402E-002
   4.0811111111111114          8.4998041391372681E-002
   4.0911111111111111          8.7916925549507141E-002
   4.1011111111111109          8.9645117521286011E-002
   4.1111111111111107          9.0148478746414185E-002
   4.1211111111111105          8.9421972632408142E-002
   4.1311111111111121          8.7489090859889984E-002
   4.1411111111111119          8.4400117397308350E-002
   4.1511111111111116          8.0229632556438446E-002
   4.1611111111111114          7.5073622167110443E-002
   4.1711111111111112          6.9046616554260254E-002
   4.1811111111111110          6.2278937548398972E-002
   4.1911111111111108          5.4914165288209915E-002
   4.2011111111111106          4.7106504440307617E-002
   4.2111111111111121          3.9017796516418457E-002
   4.2211111111111119          3.0813785269856453E-002
   4.2311111111111117          2.2659486159682274E-002
   4.2411111111111115          1.4713710173964500E-002
   4.2511111111111113          7.1231019683182240E-003
   4.2611111111111111          1.6289610357489437E-005
   4.2711111111111109         -6.5010893158614635E-003
   4.2811111111111106         -1.2349790893495083E-002
   4.2911111111111104         -1.7478289082646370E-002
   4.3011111111111120         -2.1861867979168892E-002
   4.3111111111111118         -2.5499742478132248E-002
   4.3211111111111116         -2.8410784900188446E-002
   4.3311111111111114         -3.0628699809312820E-002
   4.3411111111111111         -3.2197479158639908E-002
   4.3511111111111109         -3.3167820423841476E-002
   4.3611111111111107         -3.3594876527786255E-002
   4.3711111111111105         -3.3537261188030243E-002
   4.3811111111111121         -3.3056970685720444E-002
   4.3911111111111119         -3.2219570130109787E-002
   4.4011111111111116         -3.1094022095203400E-002
   4.4111111111111114         -2.9751641675829887E-002
   4.4211111111111112         -2.8263971209526062E-002
   4.4311111111111110         -2.6699742302298546E-002
   4.4411111111111108         -2.5121390819549561E-002
   4.4511111111111106         -2.3581802845001221E-002
   4.4611111111111121         -2.2121945396065712E-002
   4.4711111111111119         -2.0769905298948288E-002
   4.4811111111111117         -1.9541524350643158E-002
   4.4911111111111115         -1.8442470580339432E-002
   4.5011111111111113         -1.7471265047788620E-002
   4.5111111111111111         -1.6622578725218773E-002
   4.5211111111111109         -1.5890115872025490E-002
   4.5311111111111106         -1.5268516726791859E-002
   4.5411111111111104         -1.4753988943994045E-002
   4.5511111111111120         -1.4343717135488987E-002