 -0.88888888888888884          0.0000000000000000     
 -0.87888888888888883          0.0000000000000000     
 -0.86888888888888882          0.0000000000000000     
 -0.85888888888888881          0.0000000000000000     
 -0.84888888888888880          0.0000000000000000     
 -0.83888888888888880          0.0000000000000000     
 -0.82888888888888879          0.0000000000000000     
 -0.81888888888888878          0.0000000000000000     
 -0.80888888888888888          0.0000000000000000     
 -0.79888888888888887          0.0000000000000000     
 -0.78888888888888886          0.0000000000000000     
 -0.77888888888888885          0.0000000000000000     
 -0.76888888888888884          0.0000000000000000     
 -0.75888888888888884          0.0000000000000000     
 -0.74888888888888883          0.0000000000000000     
 -0.73888888888888882          0.0000000000000000     
 -0.72888888888888881          0.0000000000000000     
 -0.71888888888888880          1.3067876091387369E-038
 -0.70888888888888890          4.1930448587054913E-038
 -0.69888888888888889         -2.1536514059254184E-038
 -0.68888888888888888         -3.3921557027154570E-037
 -0.67888888888888888         -8.4416093867752861E-037
 -0.66888888888888887          0.0000000000000000     
 -0.65888888888888886          4.6579293685147460E-036
 -0.64888888888888885          1.2403593401812669E-035
 -0.63888888888888884          9.7431972817803608E-036
 -0.62888888888888883         -3.2499230386604014E-035
 -0.61888888888888882         -1.2764188060350351E-034
 -0.60888888888888881         -1.9228579322463808E-034
 -0.59888888888888880          1.7811200319268764E-035
 -0.58888888888888880          7.7179285655145078E-034
 -0.57888888888888879          1.8511561977184532E-033
 -0.56888888888888878          1.8683472515862522E-033
 -0.55888888888888877         -1.6328940800776172E-033
 -0.54888888888888876         -9.9378503817263670E-033
 -0.53888888888888875         -1.8648489069298081E-032
 -0.52888888888888885         -1.4291172487141780E-032
 -0.51888888888888884          2.0703876206541376E-032
 -0.50888888888888884          8.8584272740184650E-032
 -0.49888888888888883          1.4811572064711263E-031
 -0.48888888888888882          1.0379651558085674E-031
 -0.47888888888888881         -1.4847455205264464E-031
 -0.46888888888888886         -6.0088675722508722E-031
 -0.45888888888888885         -9.8918489090622341E-031
 -0.44888888888888884         -7.6580348949008457E-031
 -0.43888888888888883          6.3616517646445135E-031
 -0.42888888888888882          3.2014172989842550E-030
 -0.41888888888888881          5.6569253159310638E-030
 -0.40888888888888886          5.3399781847120714E-030
 -0.39888888888888885         -6.8851059818340427E-031
 -0.38888888888888884         -1.3098106611664531E-029
 -0.37888888888888883         -2.7285787024507374E-029
 -0.36888888888888882         -3.2207070672417006E-029
 -0.35888888888888881         -1.3777570182146041E-029
 -0.34888888888888880          3.5927855982148236E-029
 -0.33888888888888880          1.0621680588109246E-028
 -0.32888888888888879          1.5935700472131431E-028
 -0.31888888888888878          1.3628565195320554E-028
 -0.30888888888888888         -1.6193554505515378E-029
 -0.29888888888888887         -2.9969992902892537E-028
 -0.28888888888888886         -6.1898521744130786E-028
 -0.27888888888888885         -7.7028887387779403E-028
 -0.26888888888888884         -4.9800133167456411E-028
 -0.25888888888888884          3.6724135328773784E-028
 -0.24888888888888883          1.7219749262415998E-027
 -0.23888888888888882          3.0446392859866108E-027
 -0.22888888888888881          3.4189520521770310E-027
 -0.21888888888888880          1.8338306262956772E-027
 -0.20888888888888879         -2.2342846174002486E-027
 -0.19888888888888878         -8.1253690128774852E-027
 -0.18888888888888877         -1.3539646502383902E-026
 -0.17888888888888888         -1.4763770656524340E-026
 -0.16888888888888887         -7.9019495837488996E-027
 -0.15888888888888886          8.9478281511643213E-027
 -0.14888888888888885          3.3209524936264464E-026
 -0.13888888888888884          5.6231576882988341E-026
 -0.12888888888888883          6.3997530390388236E-026
 -0.11888888888888882          4.1176474655636433E-026
 -0.10888888888888881         -2.1561215594978693E-026
  -9.8888888888888804E-002    -1.1865996432527883E-025
  -8.8888888888888795E-002    -2.2257076886896342E-025
  -7.8888888888888786E-002    -2.8279199129117957E-025
  -6.8888888888888777E-002    -2.3526245615022483E-025
  -5.8888888888888768E-002    -2.4554030609870771E-026
  -4.8888888888888871E-002     3.6225991603468782E-025
  -3.8888888888888862E-002     8.5673745573462224E-025
  -2.8888888888888853E-002     1.2793701787448451E-024
  -1.8888888888888844E-002     1.3415554922577385E-024
  -8.8888888888888351E-003     7.0727350844040100E-025
   1.1111111111111738E-003    -8.6223256219277866E-025
   1.1111111111111183E-002    -3.2828590537887609E-024
   2.1111111111111192E-002    -5.8970614605113721E-024
   3.1111111111111200E-002    -7.3312456905134539E-024
   4.1111111111111209E-002    -5.6636268690342543E-024
   5.1111111111111218E-002     8.9368996851027694E-025
   6.1111111111111227E-002     1.2737516944411121E-023
   7.1111111111111125E-002     2.7314570745098067E-023
   8.1111111111111134E-002     3.8011606661429130E-023
   9.1111111111111143E-002     3.4664842182923641E-023
  0.10111111111111115          6.8640814735806655E-024
  0.11111111111111116         -4.9574688789391650E-023
  0.12111111111111117         -1.2438477287953931E-022
  0.13111111111111118         -1.8672057423187815E-022
  0.14111111111111119         -1.8695354694529526E-022
  0.15111111111111120         -7.2026275997156855E-023
  0.16111111111111120          1.8406201200708747E-022
  0.17111111111111121          5.4150507393473613E-022
  0.18111111111111122          8.6539661938588681E-022
  0.19111111111111123          9.3181360840860466E-022
  0.20111111111111124          4.9344726369188862E-022
  0.21111111111111125         -5.8922613523436290E-022
  0.22111111111111126         -2.1808429037956260E-021
  0.23111111111111127         -3.7416266967775275E-021
  0.24111111111111128         -4.3404020626893504E-021
  0.25111111111111128         -2.9063065542955570E-021
  0.26111111111111129          1.2565257206624790E-021
  0.27111111111111108          7.8028835755050742E-021
  0.28111111111111109          1.4804170976309444E-020
  0.29111111111111110          1.8720409118827737E-020
  0.30111111111111111          1.5247048646149164E-020
  0.31111111111111112          1.1458425529388658E-021
  0.32111111111111112         -2.3301816796112304E-020
  0.33111111111111113         -5.2146503022282824E-020
  0.34111111111111114         -7.3264123561554716E-020
  0.35111111111111115         -7.0767479215368005E-020
  0.36111111111111116         -3.0841377440251352E-020
  0.37111111111111117          4.9974081164474221E-020
  0.38111111111111118          1.5684287916891598E-019
  0.39111111111111119          2.5322490431843493E-019
  0.40111111111111120          2.8623538196934760E-019
  0.41111111111111120          2.0296285120969288E-019
  0.42111111111111121         -2.4260094226645050E-020
  0.43111111111111122         -3.7101162368504716E-019
  0.44111111111111123         -7.4425911656582515E-019
  0.45111111111111124         -9.8913482167266781E-019
  0.46111111111111125         -9.2746799001895675E-019
  0.47111111111111126         -4.2594722140531967E-019
  0.48111111111111127          5.2270339068565401E-019
  0.49111111111111128          1.7356294455427058E-018
  0.50111111111111128          2.8288071480598700E-018
  0.51111111111111129          3.2874670103967950E-018
  0.52111111111111108          2.6231388217110634E-018
  0.53111111111111109          5.8748647020079375E-019
  0.54111111111111110         -2.6230550696740424E-018
  0.55111111111111111         -6.2599887248767811E-018
  0.56111111111111112         -9.0944744678418277E-018
  0.57111111111111112         -9.7070033657985698E-018
  0.58111111111111113         -6.9601234943284018E-018
  0.59111111111111114         -5.3437072152692618E-019
  0.60111111111111115          8.6574170475871844E-018
  0.61111111111111116          1.8374574882585455E-017
  0.62111111111111117          2.5407970862754417E-017
  0.63111111111111118          2.6398847209809238E-017
  0.64111111111111119          1.8952382047149671E-017
  0.65111111111111120          2.7301294640659691E-018
  0.66111111111111120         -1.9864016145883138E-017
  0.67111111111111121         -4.3732400402245682E-017
  0.68111111111111122         -6.2005782971775075E-017
  0.69111111111111123         -6.7704567701342805E-017
  0.70111111111111124         -5.5736495082451973E-017
  0.71111111111111125         -2.4669450776977273E-017
  0.72111111111111126          2.2256204279413018E-017
  0.73111111111111127          7.7193308709171295E-017
  0.74111111111111128          1.2881516919676809E-016
  0.75111111111111128          1.6417710067874062E-016
  0.76111111111111129          1.7084510285820409E-016
  0.77111111111111130          1.3893452623382741E-016
  0.78111111111111109          6.3011045644043419E-017
  0.79111111111111110         -5.5876229048969331E-017
  0.80111111111111111         -2.0770726203866199E-016
  0.81111111111111112         -3.7065897074052166E-016
  0.82111111111111112         -5.0896722198897292E-016
  0.83111111111111113         -5.7363172888561594E-016
  0.84111111111111114         -5.0877319850449248E-016
  0.85111111111111115         -2.6589812111256700E-016
  0.86111111111111116          1.7399891092329727E-016
  0.87111111111111117          7.7459834243469761E-016
  0.88111111111111118          1.4235381824739173E-015
  0.89111111111111119          1.9292185460506291E-015
  0.90111111111111120          2.0474620161467245E-015
  0.91111111111111120          1.5446360477231412E-015
  0.92111111111111121          2.9192934940582298E-016
  0.93111111111111122         -1.6306689724175237E-015
  0.94111111111111123         -3.8577044086018832E-015
  0.95111111111111124         -5.7339836072073554E-015
  0.96111111111111125         -6.4212047307208187E-015
  0.97111111111111126         -5.1284461059623605E-015
  0.98111111111111127         -1.4362377474521010E-015
  0.99111111111111128          4.3677207338355898E-015
   1.0011111111111113          1.1066554065546162E-014
   1.0111111111111113          1.6545467253215040E-014
   1.0211111111111113          1.8182063656318331E-014
   1.0311111111111111          1.3611572128756008E-014
   1.0411111111111111          1.7464857989988539E-015
   1.0511111111111111         -1.6220882533761298E-014
   1.0611111111111111         -3.6219379546346270E-014
   1.0711111111111111         -5.1510316465778333E-014
   1.0811111111111111         -5.3993664601197436E-014
   1.0911111111111111         -3.6614073182844251E-014
   1.1011111111111112          3.5295392808800969E-015
   1.1111111111111112          6.2194458025528754E-014
   1.1211111111111114          1.2625986953000712E-013
   1.1311111111111112          1.7441969635094423E-013
   1.1411111111111114          1.8111240859906147E-013
   1.1511111111111112          1.2370309041432465E-013
   1.1611111111111110         -8.1913676416942721E-015
   1.1711111111111112         -2.0354268129903902E-013
   1.1811111111111110         -4.2412221738091782E-013
   1.1911111111111112         -6.0546066858041536E-013
   1.2011111111111110         -6.6704969456030105E-013
   1.2111111111111112         -5.3222405866151790E-013
   1.2211111111111110         -1.5516682719523417E-013
   1.2311111111111113          4.5083644391492872E-013
   1.2411111111111111          1.1924582415251406E-012
   1.2511111111111113          1.8922524137876540E-012
   1.2611111111111111          2.3093391348510961E-012
   1.2711111111111113          2.1880446673255838E-012
   1.2811111111111111          1.3303038141551649E-012
   1.2911111111111113         -3.2110989214850783E-013
   1.3011111111111111         -2.6094133364490402E-012
   1.3111111111111113         -5.1261191472140588E-012
   1.3211111111111111         -7.2328892007644807E-012
   1.3311111111111114         -8.1582665970025836E-012
   1.3411111111111111         -7.1686237675117059E-012
   1.3511111111111114         -3.7916232653589788E-012
   1.3611111111111112          1.9513130260911948E-012
   1.3711111111111114          9.3637137973945350E-012
   1.3811111111111112          1.7009706143600312E-011
   1.3911111111111114          2.2821924905436219E-011
   1.4011111111111112          2.4408313911705726E-011
   1.4111111111111114          1.9540055337663453E-011
   1.4211111111111112          6.7491663299779070E-012
   1.4311111111111110         -1.4086893977693915E-011
   1.4411111111111112         -4.1331972566727160E-011
   1.4511111111111110         -7.1514481836398858E-011
   1.4611111111111112         -9.9720169621786425E-011
   1.4711111111111110         -1.2051577791272194E-010
   1.4811111111111113         -1.2935780224765381E-010
   1.4911111111111111         -1.2431634888177001E-010
   1.5011111111111113         -1.0783061943353545E-010
   1.5111111111111111         -8.8130384934270722E-011
   1.5211111111111113         -7.9943857089759263E-011
   1.5311111111111111         -1.0416614099062471E-010
   1.5411111111111113         -1.8628659725905550E-010
   1.5511111111111111         -3.5358760364090358E-010
   1.5611111111111113         -6.3131244676384313E-010
   1.5711111111111111         -1.0382005255493709E-009
   1.5811111111111114         -1.5818891752061859E-009
   1.5911111111111111         -2.2546022826475109E-009
   1.6011111111111114         -3.0292650610164173E-009
   1.6111111111111112         -3.8556748904738924E-009
   1.6211111111111114         -4.6554986532498788E-009
   1.6311111111111112         -5.3138222710913396E-009
   1.6411111111111114         -5.6637325940300798E-009
   1.6511111111111112         -5.4584927688949847E-009
   1.6611111111111114         -4.3242454061953595E-009
   1.6711111111111112         -1.6838090921567073E-009
   1.6811111111111110          3.3599782955917590E-009
   1.6911111111111112          1.2196507803707846E-008
   1.7011111111111110          2.6953472342938767E-008
   1.7111111111111112          5.0840199605772796E-008
   1.7211111111111110          8.8617817084468697E-008
   1.7311111111111113          1.4723309504915960E-007
   1.7411111111111111          2.3666491699714243E-007
   1.7511111111111113          3.7104604189153179E-007
   1.7611111111111111          5.7013960486074211E-007
   1.7711111111111113          8.6127175791261834E-007
   1.7811111111111111          1.2818496770705679E-006
   1.7911111111111113          1.8826181076292414E-006
   1.8011111111111111          2.7318583306623623E-006
   1.8111111111111113          3.9207420741149690E-006
   1.8211111111111111          5.5701298151689116E-006
   1.8311111111111114          7.8391049100901000E-006
   1.8411111111111111          1.0935581485682633E-005
   1.8511111111111114          1.5129366147448309E-005
   1.8611111111111112          2.0768045942531899E-005
   1.8711111111111114          2.8296071832301095E-005
   1.8811111111111112          3.8277346902759746E-005
   1.8911111111111114          5.1421626267256215E-005
   1.9011111111111112          6.8614775955211371E-005
   1.9111111111111114          9.0952838945668191E-005
   1.9211111111111112          1.1977971007581800E-004
   1.9311111111111110          1.5672761946916580E-004
   1.9411111111111112          2.0375951135065407E-004
   1.9511111111111110          2.6321163750253618E-004
   1.9611111111111112          3.3783432445488870E-004
   1.9711111111111110          4.3082810589112341E-004
   1.9811111111111113          5.4587167687714100E-004
   1.9911111111111111          6.8713765358552337E-004
   2.0011111111111113          8.5929146734997630E-004
   2.0111111111111111          1.0674681980162859E-003
   2.0211111111111113          1.3172210892662406E-003
   2.0311111111111111          1.6144370893016458E-003
   2.0411111111111113          1.9652131013572216E-003
   2.0511111111111111          2.3756886366754770E-003
   2.0611111111111113          2.8518314938992262E-003
   2.0711111111111111          3.3991748932749033E-003
   2.0811111111111114          4.0225056000053883E-003
   2.0911111111111111          4.7255079261958599E-003
   2.1011111111111114          5.5103693157434464E-003
   2.1111111111111112          6.3773584552109241E-003
   2.1211111111111114          7.3243929073214531E-003
   2.1311111111111112          8.3466107025742531E-003
   2.1411111111111114          9.4359684735536575E-003
   2.1511111111111112          1.0580898262560368E-002
   2.1611111111111114          1.1766036041080952E-002
   2.1711111111111112          1.2972068041563034E-002
   2.1811111111111114          1.4175707474350929E-002
   2.1911111111111112          1.5349831432104111E-002
   2.2011111111111110          1.6463799402117729E-002
   2.2111111111111112          1.7483970150351524E-002
   2.2211111111111110          1.8374407663941383E-002
   2.2311111111111113          1.9097797572612762E-002
   2.2411111111111111          1.9616527482867241E-002
   2.2511111111111113          1.9893933087587357E-002
   2.2611111111111111          1.9895654171705246E-002
   2.2711111111111113          1.9591057673096657E-002
   2.2811111111111111          1.8954670056700706E-002
   2.2911111111111113          1.7967550083994865E-002
   2.3011111111111111          1.6618534922599792E-002
   2.3111111111111113          1.4905301854014397E-002
   2.3211111111111111          1.2835164554417133E-002
   2.3311111111111114          1.0425560176372528E-002
   2.3411111111111111          7.7041783370077610E-003
   2.3511111111111114          4.7087012790143490E-003
   2.3611111111111112          1.4861441450193524E-003
   2.3711111111111114         -1.9081986974924803E-003
   2.3811111111111112         -5.4121715947985649E-003
   2.3911111111111114         -8.9584942907094955E-003
   2.4011111111111112         -1.2476756237447262E-002
   2.4111111111111114         -1.5895584598183632E-002
   2.4211111111111112         -1.9144903868436813E-002
   2.4311111111111114         -2.2158173844218254E-002
   2.4411111111111112         -2.4874538183212280E-002
   2.4511111111111110         -2.7240762487053871E-002
   2.4611111111111112         -2.9212901368737221E-002
   2.4711111111111110         -3.0757600441575050E-002
   2.4811111111111113         -3.1853016465902328E-002
   2.4911111111111111         -3.2489281147718430E-002
   2.5011111111111113         -3.2668542116880417E-002
   2.5111111111111111         -3.2404541969299316E-002
   2.5211111111111113         -3.1721826642751694E-002
   2.5311111111111111         -3.0654571950435638E-002
   2.5411111111111113         -2.9245121404528618E-002
   2.5511111111111111         -2.7542311698198318E-002
   2.5611111111111113         -2.5599634274840355E-002
   2.5711111111111111         -2.3473344743251801E-002
   2.5811111111111114         -2.1220568567514420E-002
   2.5911111111111111         -1.8897488713264465E-002
   2.6011111111111114         -1.6557665541768074E-002
   2.6111111111111112         -1.4250549487769604E-002
   2.6211111111111114         -1.2020218186080456E-002
   2.6311111111111112         -9.9043706431984901E-003
   2.6411111111111114         -7.9335961490869522E-003
   2.6511111111111112         -6.1309188604354858E-003
   2.6611111111111114         -4.5116259716451168E-003
   2.6711111111111112         -3.0833571217954159E-003
   2.6811111111111114         -1.8464478198438883E-003
   2.6911111111111112         -7.9449528129771352E-004
   2.7011111111111110          8.4880346548743546E-005
   2.7111111111111112          8.0910825636237860E-004
   2.7211111111111110          1.3996178749948740E-003
   2.7311111111111113          1.8806947628036141E-003
   2.7411111111111111          2.2782976739108562E-003
   2.7511111111111113          2.6188704650849104E-003
   2.7611111111111111          2.9281906317919493E-003
   2.7711111111111113          3.2302876934409142E-003
   2.7811111111111111          3.5464800894260406E-003
   2.7911111111111113          3.8945444393903017E-003
   2.8011111111111111          4.2880536057054996E-003
   2.8111111111111113          4.7358935698866844E-003
   2.8211111111111111          5.2419775165617466E-003
   2.8311111111111114          5.8051561936736107E-003
   2.8411111111111111          6.4193280413746834E-003
   2.8511111111111114          7.0737404748797417E-003
   2.8611111111111112          7.7534741722047329E-003
   2.8711111111111114          8.4400996565818787E-003
   2.8811111111111112          9.1124773025512695E-003
   2.8911111111111114          9.7476886585354805E-003
   2.9011111111111112          1.0322057642042637E-002
   2.9111111111111114          1.0812234133481979E-002
   2.9211111111111112          1.1196291074156761E-002
   2.9311111111111114          1.1454788967967033E-002
   2.9411111111111112          1.1571753770112991E-002
   2.9511111111111110          1.1535517871379852E-002
   2.9611111111111112          1.1339377611875534E-002
   2.9711111111111110          1.0982017032802105E-002
   2.9811111111111113          1.0467674583196640E-002
   2.9911111111111111          9.8060350865125656E-003
   3.0011111111111113          9.0118525549769402E-003
   3.0111111111111111          8.1043187528848648E-003
   3.0211111111111113          7.1062273345887661E-003
   3.0311111111111111          6.0429763980209827E-003
   3.0411111111111113          4.9414755776524544E-003
   3.0511111111111111          3.8290249649435282E-003
   3.0611111111111113          2.7322233654558659E-003
   3.0711111111111111          1.6759629361331463E-003
   3.0811111111111114          6.8255281075835228E-004
   3.0911111111111111         -2.2899924078956246E-004
   3.1011111111111114         -1.0435314616188407E-003
   3.1111111111111112         -1.7500933026894927E-003
   3.1211111111111109         -2.3421356454491615E-003
   3.1311111111111116         -2.8175325132906437E-003
   3.1411111111111114         -3.1784465536475182E-003
   3.1511111111111112         -3.4310447517782450E-003
   3.1611111111111110         -3.5850729327648878E-003
   3.1711111111111117         -3.6532944068312645E-003
   3.1811111111111114         -3.6508035846054554E-003
   3.1911111111111112         -3.5942289978265762E-003
   3.2011111111111110         -3.5008483100682497E-003
   3.2111111111111108         -3.3876535017043352E-003
   3.2211111111111115         -3.2704111654311419E-003
   3.2311111111111113         -3.1627740245312452E-003
   3.2411111111111111         -3.0755058396607637E-003
   3.2511111111111108         -3.0158786103129387E-003
   3.2611111111111115         -2.9872944578528404E-003
   3.2711111111111113         -2.9891685117036104E-003
   3.2811111111111111         -3.0170902609825134E-003
   3.2911111111111109         -3.0632535926997662E-003
   3.3011111111111116         -3.1171205919235945E-003
   3.3111111111111113         -3.1662653200328350E-003
   3.3211111111111111         -3.1973251607269049E-003
   3.3311111111111109         -3.1969801057130098E-003
   3.3411111111111116         -3.1528829131275415E-003
   3.3511111111111114         -3.0544735491275787E-003
   3.3611111111111112         -2.8936285525560379E-003
   3.3711111111111109         -2.6651155203580856E-003
   3.3811111111111116         -2.3668471258133650E-003
   3.3911111111111114         -1.9999430514872074E-003
   3.4011111111111112         -1.5686295228078961E-003
   3.4111111111111110         -1.0800062445923686E-003
   3.4211111111111117         -5.4371898295357823E-004
   3.4311111111111114          2.8433767511160113E-005
   3.4411111111111112          6.2293675728142262E-004
   3.4511111111111110          1.2250236468389630E-003
   3.4611111111111117          1.8191676354035735E-003
   3.4711111111111115          2.3895963095128536E-003
   3.4811111111111113          2.9208320192992687E-003
   3.4911111111111111          3.3982500899583101E-003
   3.5011111111111108          3.8086459971964359E-003
   3.5111111111111115          4.1407868266105652E-003
   3.5211111111111113          4.3859197758138180E-003
   3.5311111111111111          4.5382021926343441E-003
   3.5411111111111109          4.5950189232826233E-003
   3.5511111111111116          4.5571564696729183E-003
   3.5611111111111113          4.4288123026490211E-003
   3.5711111111111111          4.2174309492111206E-003
   3.5811111111111109          3.9333701133728027E-003
   3.5911111111111116          3.5894215106964111E-003
   3.6011111111111114          3.2002131920307875E-003
   3.6111111111111112          2.7815389912575483E-003
   3.6211111111111109          2.3496574722230434E-003
   3.6311111111111116          1.9206054275855422E-003
   3.6411111111111114          1.5095626004040241E-003
   3.6511111111111112          1.1302973143756390E-003
   3.6611111111111110          7.9471321078017354E-004
   3.6711111111111117          5.1250547403469682E-004
   3.6811111111111114          2.9092933982610703E-004
   3.6911111111111112          1.3467679673340172E-004
   3.7011111111111110          4.5850978494854644E-005
   3.7111111111111117          2.4028639018069953E-005
   3.7211111111111115          6.6399858042132109E-005
   3.7311111111111113          1.6797469288576394E-004
   3.7411111111111111          3.2185093732550740E-004
   3.7511111111111108          5.1953928777948022E-004
   3.7611111111111115          7.5134512735530734E-004
   3.7711111111111113          1.0068072006106377E-003
   3.7811111111111111          1.2751917820423841E-003
   3.7911111111111109          1.5460390131920576E-003
   3.8011111111111116          1.8097535939887166E-003
   3.8111111111111113          2.0582252182066441E-003
   3.8211111111111111          2.2854569833725691E-003
   3.8311111111111109          2.4881735444068909E-003
   3.8411111111111116          2.6663744356483221E-003
   3.8511111111111114          2.8237933292984962E-003
   3.8611111111111112          2.9682186432182789E-003
   3.8711111111111109          3.1116430182009935E-003
   3.8811111111111116          3.2702060416340828E-003
   3.8911111111111114          3.4639190416783094E-003
   3.9011111111111112          3.7161638028919697E-003
   3.9111111111111110          4.0529947727918625E-003
   3.9211111111111117          4.5022666454315186E-003
   3.9311111111111114          5.0926362164318562E-003
   3.9411111111111112          5.8524995110929012E-003
   3.9511111111111110          6.8089063279330730E-003
   3.9611111111111117          7.9865120351314545E-003
   3.9711111111111115          9.4065945595502853E-003
   3.9811111111111113          1.1086170561611652E-002
   3.9911111111111111          1.3037210330367088E-002
   4.0011111111111113          1.5265971422195435E-002
   4.0111111111111111          1.7772430554032326E-002
   4.0211111111111109          2.0549822598695755E-002
   4.0311111111111106          2.3584276437759399E-002
   4.0411111111111104          2.6854582130908966E-002
   4.0511111111111120          3.0332107096910477E-002
   4.0611111111111118          3.3980891108512878E-002
   4.0711111111111116          3.7757966667413712E-002
   4.0811111111111114          4.1613902896642685E-002
   4.0911111111111111          4.5493640005588531E-002
   4.1011111111111109          4.9337536096572876E-002
   4.1111111111111107          5.3082648664712906E-002
   4.1211111111111105          5.6664139032363892E-002
   4.1311111111111121          6.0016728937625885E-002
   4.1411111111111119          6.3076108694076538E-002
   4.1511111111111116          6.5780214965343475E-002
   4.1611111111111114          6.8070232868194580E-002
   4.1711111111111112          6.9891393184661865E-002
   4.1811111111111110          7.1193434298038483E-002
   4.1911111111111108          7.1930818259716034E-002
   4.2011111111111106          7.2062753140926361E-002
   4.2111111111111121          7.1553051471710205E-002
   4.2211111111111119          7.0369981229305267E-002
   4.2311111111111117          6.8486139178276062E-002
   4.2411111111111115          6.5878421068191528E-002
   4.2511111111111113          6.2528178095817566E-002
   4.2611111111111111          5.8421451598405838E-002
   4.2711111111111109          5.3549379110336304E-002
   4.2811111111111106          4.7908652573823929E-002
   4.2911111111111104          4.1501998901367188E-002
   4.3011111111111120          3.4338615834712982E-002
   4.3111111111111118          2.6434540748596191E-002
   4.3211111111111116          1.7812917008996010E-002
   4.3311111111111114          8.5041476413607597E-003
   4.3411111111111111         -1.4540690463036299E-003
   4.3511111111111109         -1.2016794644296169E-002
   4.3611111111111107         -2.3131992667913437E-002
   4.3711111111111105         -3.4740775823593140E-002
   4.3811111111111121         -4.6777747571468353E-002
   4.3911111111111119         -5.9171453118324280E-002
   4.4011111111111116         -7.1845024824142456E-002
   4.4111111111111114         -8.4716998040676117E-002
   4.4211111111111112         -9.7702309489250183E-002
   4.4311111111111110        -0.11071354895830154     
   4.4411111111111108        -0.12366230040788651     
   4.4511111111111106        -0.13646060228347778     
   4.4611111111111121        -0.14902235567569733     
   4.4711111111111119        -0.16126459836959839     
   4.4811111111111117        -0.17310851812362671     
   4.4911111111111115        -0.18448005616664886     
   4.5011111111111113        -0.19531004130840302     
   4.5111111111111111        -0.20553390681743622     
   4.5211111111111109        -0.21509093046188354     
   4.5311111111111106        -0.22392310202121735     
   4.5411111111111104        -0.23197369277477264     
   4.5511111111111120        -0.23918576538562775     