 -0.88888888888888884          0.0000000000000000     
 -0.87888888888888883          0.0000000000000000     
 -0.86888888888888882          0.0000000000000000     
 -0.85888888888888881         -7.1795367632176455E-037
 -0.84888888888888880         -1.0007229527679837E-032
 -0.83888888888888880         -1.5712889411170357E-031
 -0.82888888888888879         -2.2004369523325019E-029
 -0.81888888888888878         -1.2927814381349043E-028
 -0.80888888888888888         -3.1712102463737733E-028
 -0.79888888888888887         -4.0752027621877680E-028
 -0.78888888888888886         -9.3779769005234328E-028
 -0.77888888888888885         -5.7960896343072862E-027
 -0.76888888888888884         -2.3206120004856765E-026
 -0.75888888888888884         -5.5094668081193490E-026
 -0.74888888888888883         -6.7154163465605937E-026
 -0.73888888888888882          4.1812900516875128E-026
 -0.72888888888888881          4.0539034368577430E-025
 -0.71888888888888880          1.0008450867861994E-024
 -0.70888888888888890          1.3015720772766115E-024
 -0.69888888888888889          2.0647555970105343E-026
 -0.68888888888888888         -4.4536609685535933E-024
 -0.67888888888888888         -1.2214880028623191E-023
 -0.66888888888888887         -1.8573654282781822E-023
 -0.65888888888888886         -1.1338332500621432E-023
 -0.64888888888888885          2.6624516245977798E-023
 -0.63888888888888884          1.0365721278114204E-022
 -0.62888888888888883          1.9313363473809047E-022
 -0.61888888888888882          2.0714689674956411E-022
 -0.60888888888888881          1.5267287568447927E-024
 -0.59888888888888880         -5.4666137173384827E-022
 -0.58888888888888880         -1.3719846649280746E-021
 -0.57888888888888879         -2.0214197946489771E-021
 -0.56888888888888878         -1.5881920267599983E-021
 -0.55888888888888877          9.8850173365941281E-022
 -0.54888888888888876          6.1094736093728339E-021
 -0.53888888888888875          1.2355877114072305E-020
 -0.52888888888888885          1.5644773886770852E-020
 -0.51888888888888884          9.7596124340355059E-021
 -0.50888888888888884         -1.0806214013178161E-020
 -0.49888888888888883         -4.5751837894099593E-020
 -0.48888888888888882         -8.3491042150687965E-020
 -0.47888888888888881         -9.9064158285722143E-020
 -0.46888888888888886         -5.9849535234977664E-020
 -0.45888888888888885          5.8515551400871053E-020
 -0.44888888888888884          2.4871870868458160E-019
 -0.43888888888888883          4.5051895754333120E-019
 -0.42888888888888882          5.4676576451209188E-019
 -0.41888888888888881          3.9139968707991862E-019
 -0.40888888888888886         -1.2538087070000551E-019
 -0.39888888888888885         -9.8788257362283909E-019
 -0.38888888888888884         -1.9761009825743747E-018
 -0.37888888888888883         -2.6461691843257648E-018
 -0.36888888888888882         -2.4151581119598649E-018
 -0.35888888888888881         -7.6704137669554892E-019
 -0.34888888888888880          2.4529598523632320E-018
 -0.33888888888888880          6.7450201391176623E-018
 -0.32888888888888879          1.0793215587172578E-017
 -0.31888888888888878          1.2571189028657333E-017
 -0.30888888888888888          9.8039936013428625E-018
 -0.29888888888888887          7.7934574000606349E-019
 -0.28888888888888886         -1.4627269691069153E-017
 -0.27888888888888885         -3.3981972535829916E-017
 -0.26888888888888884         -5.1747171732953681E-017
 -0.25888888888888884         -5.9571337489472311E-017
 -0.24888888888888883         -4.7771093199423589E-017
 -0.23888888888888882         -8.1948047094883280E-018
 -0.22888888888888881          6.1655991451783551E-017
 -0.21888888888888880          1.5386741269145531E-016
 -0.20888888888888879          2.4604112773008444E-016
 -0.19888888888888878          3.0007815046554417E-016
 -0.18888888888888877          2.6667069456980173E-016
 -0.17888888888888888          9.8244075916800586E-017
 -0.16888888888888887         -2.2869982220094715E-016
 -0.15888888888888886         -6.8504313710827654E-016
 -0.14888888888888885         -1.1637385662326832E-015
 -0.13888888888888884         -1.4733009446086338E-015
 -0.12888888888888883         -1.3677408399856059E-015
 -0.11888888888888882         -6.2383351878480620E-016
 -0.10888888888888881          8.4147005837320772E-016
  -9.8888888888888804E-002     2.8471326926388270E-015
  -8.8888888888888795E-002     4.8757634723021939E-015
  -7.8888888888888786E-002     6.1180461331843475E-015
  -6.8888888888888777E-002     5.6740738138810060E-015
  -5.8888888888888768E-002     2.8922539259808267E-015
  -4.8888888888888871E-002    -2.2518224789572173E-015
  -3.8888888888888862E-002    -8.8964776775372727E-015
  -2.8888888888888853E-002    -1.5319761450627127E-014
  -1.8888888888888844E-002    -1.9335078785438775E-014
  -8.8888888888888351E-003    -1.8987107486311341E-014
   1.1111111111111738E-003    -1.3304776795260501E-014
   1.1111111111111183E-002    -2.7643671975384780E-015
   2.1111111111111192E-002     1.0832827182212599E-014
   3.1111111111111200E-002     2.5125497656822843E-014
   4.1111111111111209E-002     3.8292973799465210E-014
   5.1111111111111218E-002     4.9851602338356338E-014
   6.1111111111111227E-002     6.0413452669313972E-014
   7.1111111111111125E-002     6.9987289889276300E-014
   8.1111111111111134E-002     7.5142535694173312E-014
   9.1111111111111143E-002     6.6324292520743289E-014
  0.10111111111111115          2.7382581269173693E-014
  0.11111111111111116         -6.0561588567393382E-014
  0.12111111111111117         -2.0986246865740271E-013
  0.13111111111111118         -4.1291961711854841E-013
  0.14111111111111119         -6.2874179604030522E-013
  0.15111111111111120         -7.7626728829660596E-013
  0.16111111111111120         -7.4202265425843406E-013
  0.17111111111111121         -4.0747844009571266E-013
  0.18111111111111122          3.0431001685551906E-013
  0.19111111111111123          1.3717055919945653E-012
  0.20111111111111124          2.6250030794872092E-012
  0.21111111111111125          3.7281653458842712E-012
  0.22111111111111126          4.2145128532899978E-012
  0.23111111111111127          3.5887527758543536E-012
  0.24111111111111128          1.4881362201540904E-012
  0.25111111111111128         -2.1296011828986217E-012
  0.26111111111111129         -6.8272254169499114E-012
  0.27111111111111108         -1.1625989233821077E-011
  0.28111111111111109         -1.5101307357379135E-011
  0.29111111111111110         -1.5665179223245396E-011
  0.30111111111111111         -1.2010929577310758E-011
  0.31111111111111112         -3.6317281647268995E-012
  0.32111111111111112          8.7320419991931963E-012
  0.33111111111111113          2.2888026543488316E-011
  0.34111111111111114          3.5379220386655419E-011
  0.35111111111111115          4.2133838085156583E-011
  0.36111111111111116          3.9520640232604265E-011
  0.37111111111111117          2.5603037051569189E-011
  0.38111111111111118          1.2563922341737865E-012
  0.39111111111111119         -2.9248162919381926E-011
  0.40111111111111120         -5.8542733161193183E-011
  0.41111111111111120         -7.7522273322916391E-011
  0.42111111111111121         -7.7664340236704987E-011
  0.43111111111111122         -5.3880021971819403E-011
  0.44111111111111123         -7.1746788198046030E-012
  0.45111111111111124          5.3760627893861823E-011
  0.46111111111111125          1.1284563561364536E-010
  0.47111111111111126          1.4929431302324048E-010
  0.48111111111111127          1.4263003278447428E-010
  0.49111111111111128          7.9286806287104383E-011
  0.50111111111111128         -4.0618338553732869E-011
  0.51111111111111129         -1.9821161378885677E-010
  0.52111111111111108         -3.5442881962666206E-010
  0.53111111111111109         -4.5374251578245151E-010
  0.54111111111111110         -4.3366804591826735E-010
  0.55111111111111111         -2.3940666116217812E-010
  0.56111111111111112          1.5837597899803768E-010
  0.57111111111111112          7.4574363351231909E-010
  0.58111111111111113          1.4513104051872006E-009
  0.59111111111111114          2.1390005322530214E-009
  0.60111111111111115          2.6097268790437056E-009
  0.61111111111111116          2.6116910856188724E-009
  0.62111111111111117          1.8558933279066991E-009
  0.63111111111111118          2.9935460360563937E-011
  0.64111111111111119         -3.2003519834233884E-009
  0.65111111111111120         -8.2153315261734861E-009
  0.66111111111111120         -1.5508753392623476E-008
  0.67111111111111121         -2.5816927262667377E-008
  0.68111111111111122         -4.0330931483367749E-008
  0.69111111111111123         -6.1015747121473396E-008
  0.70111111111111124         -9.1064038088006782E-008
  0.71111111111111125         -1.3551772326536593E-007
  0.72111111111111126         -2.0210183038216201E-007
  0.73111111111111127         -3.0232823178266699E-007
  0.74111111111111128         -4.5295016093405138E-007
  0.75111111111111128         -6.7788118940370623E-007
  0.76111111111111129         -1.0107229400091455E-006
  0.77111111111111130         -1.4981151252868585E-006
  0.78111111111111109         -2.2041685951990075E-006
  0.79111111111111110         -3.2163354717340553E-006
  0.80111111111111111         -4.6531472435162868E-006
  0.81111111111111112         -6.6743796196533367E-006
  0.82111111111111112         -9.4942952273413539E-006
  0.83111111111111113         -1.3398740520642605E-005
  0.84111111111111114         -1.8767017536447383E-005
  0.85111111111111115         -2.6099563910975121E-005
  0.86111111111111116         -3.6052570067113265E-005
  0.87111111111111117         -4.9480695452075452E-005
  0.88111111111111118         -6.7489163484424353E-005
  0.89111111111111119         -9.1496491222642362E-005
  0.90111111111111120         -1.2330885510891676E-004
  0.91111111111111120         -1.6520715143997222E-004
  0.92111111111111121         -2.2004751372151077E-004
  0.93111111111111122         -2.9137489036656916E-004
  0.94111111111111123         -3.8354980642907321E-004
  0.95111111111111124         -5.0188630120828748E-004
  0.96111111111111125         -6.5279897535219789E-004
  0.97111111111111126         -8.4395444719120860E-004
  0.98111111111111127         -1.0844225762411952E-003
  0.99111111111111128         -1.3848185772076249E-003
   1.0011111111111113         -1.7574267694726586E-003
   1.0111111111111113         -2.2162934765219688E-003
   1.0211111111111113         -2.7772746980190277E-003
   1.0311111111111111         -3.4580209758132696E-003
   1.0411111111111111         -4.2778807692229748E-003
   1.0511111111111111         -5.2577019669115543E-003
   1.0611111111111111         -6.4195096492767334E-003
   1.0711111111111111         -7.7860425226390362E-003
   1.0811111111111111         -9.3801273033022881E-003
   1.0911111111111111         -1.1223874054849148E-002
   1.1011111111111112         -1.3337691314518452E-002
   1.1111111111111112         -1.5739113092422485E-002
   1.1211111111111114         -1.8441446125507355E-002
   1.1311111111111112         -2.1452266722917557E-002
   1.1411111111111114         -2.4771792814135551E-002
   1.1511111111111112         -2.8391188010573387E-002
   1.1611111111111110         -3.2290853559970856E-002
   1.1711111111111112         -3.6438796669244766E-002
   1.1811111111111110         -4.0789145976305008E-002
   1.1911111111111112         -4.5280959457159042E-002
   1.2011111111111110         -4.9837395548820496E-002
   1.2111111111111112         -5.4365362972021103E-002
   1.2211111111111110         -5.8755781501531601E-002
   1.2311111111111113         -6.2884517014026642E-002
   1.2411111111111111         -6.6614091396331787E-002
   1.2511111111111113         -6.9796182215213776E-002
   1.2611111111111111         -7.2274968028068542E-002
   1.2711111111111113         -7.3891267180442810E-002
   1.2811111111111111         -7.4487447738647461E-002
   1.2911111111111113         -7.3912933468818665E-002
   1.3011111111111111         -7.2030134499073029E-002
   1.3111111111111113         -6.8720720708370209E-002
   1.3211111111111111         -6.3891820609569550E-002
   1.3311111111111114         -5.7482000440359116E-002
   1.3411111111111111         -4.9466699361801147E-002
   1.3511111111111114         -3.9862811565399170E-002
   1.3611111111111112         -2.8732139617204666E-002
   1.3711111111111114         -1.6183480620384216E-002
   1.3811111111111112         -2.3731004912406206E-003
   1.3911111111111114          1.2496536597609520E-002
   1.4011111111111112          2.8179869055747986E-002
   1.4111111111111114          4.4393159449100494E-002
   1.4211111111111112          6.0821164399385452E-002
   1.4311111111111110          7.7125363051891327E-002
   1.4411111111111112          9.2953480780124664E-002
   1.4511111111111110         0.10795003175735474     
   1.4611111111111112         0.12176737934350967     
   1.4711111111111110         0.13407699763774872     
   1.4811111111111113         0.14458037912845612     
   1.4911111111111111         0.15301914513111115     
   1.5011111111111113         0.15918394923210144     
   1.5111111111111111         0.16292175650596619     
   1.5211111111111113         0.16414120793342590     
   1.5311111111111111         0.16281574964523315     
   1.5411111111111113         0.15898443758487701     
   1.5511111111111111         0.15275046229362488     
   1.5611111111111113         0.14427731931209564     
   1.5711111111111111         0.13378290832042694     
   1.5811111111111114         0.12153182178735733     
   1.5911111111111111         0.10782603919506073     
   1.6011111111111114          9.2994615435600281E-002
   1.6111111111111112          7.7382706105709076E-002
   1.6211111111111114          6.1340428888797760E-002
   1.6311111111111112          4.5212049037218094E-002
   1.6411111111111114          2.9325861483812332E-002
   1.6511111111111112          1.3985156081616879E-002
   1.6611111111111114         -5.3942995145916939E-004
   1.6711111111111112         -1.4015961438417435E-002
   1.6811111111111110         -2.6255493983626366E-002
   1.6911111111111112         -3.7114541977643967E-002
   1.7011111111111110         -4.6495746821165085E-002
   1.7111111111111112         -5.4346863180398941E-002
   1.7211111111111110         -6.0658238828182220E-002
   1.7311111111111113         -6.5459035336971283E-002
   1.7411111111111111         -6.8812474608421326E-002
   1.7511111111111113         -7.0810370147228241E-002
   1.7611111111111111         -7.1567282080650330E-002
   1.7711111111111113         -7.1214444935321808E-002
   1.7811111111111111         -6.9893889129161835E-002
   1.7911111111111113         -6.7752860486507416E-002
   1.8011111111111111         -6.4938783645629883E-002
   1.8111111111111113         -6.1594907194375992E-002
   1.8211111111111111         -5.7856712490320206E-002
   1.8311111111111114         -5.3849127143621445E-002
   1.8411111111111111         -4.9684554338455200E-002
   1.8511111111111114         -4.5461602509021759E-002
   1.8611111111111112         -4.1264515370130539E-002
   1.8711111111111114         -3.7163175642490387E-002
   1.8811111111111112         -3.3213637769222260E-002
   1.8911111111111114         -2.9459048062562943E-002
   1.9011111111111112         -2.5930864736437798E-002
   1.9111111111111114         -2.2650238126516342E-002
   1.9211111111111112         -1.9629471004009247E-002
   1.9311111111111110         -1.6873462125658989E-002
   1.9411111111111112         -1.4381088316440582E-002
   1.9511111111111110         -1.2146481312811375E-002
   1.9611111111111112         -1.0160180740058422E-002
   1.9711111111111110         -8.4101464599370956E-003
   1.9811111111111113         -6.8826070055365562E-003
   1.9911111111111111         -5.5627478286623955E-003
   2.0011111111111113         -4.4352249242365360E-003
   2.0111111111111111         -3.4845336340367794E-003
   2.0211111111111113         -2.6952624320983887E-003
   2.0311111111111111         -2.0522638224065304E-003
   2.0411111111111113         -1.5407701721414924E-003
   2.0511111111111111         -1.1464687995612621E-003
   2.0611111111111113         -8.5554254474118352E-004
   2.0711111111111111         -6.5468449611216784E-004
   2.0811111111111114         -5.3109496366232634E-004
   2.0911111111111111         -4.7247906331904233E-004
   2.1011111111111114         -4.6706217108294368E-004
   2.1111111111111112         -5.0363363698124886E-004
   2.1211111111111114         -5.7161814766004682E-004
   2.1311111111111112         -6.6116300877183676E-004
   2.1411111111111114         -7.6322304084897041E-004
   2.1511111111111112         -8.6963264038786292E-004
   2.1611111111111114         -9.7316078608855605E-004
   2.1711111111111112         -1.0675556259229779E-003
   2.1811111111111114         -1.1475849896669388E-003
   2.1911111111111112         -1.2090748641639948E-003
   2.2011111111111110         -1.2489412911236286E-003
   2.2111111111111112         -1.2652032310143113E-003
   2.2211111111111110         -1.2569708051159978E-003
   2.2311111111111113         -1.2244071112945676E-003
   2.2411111111111111         -1.1686711804941297E-003
   2.2511111111111113         -1.0918488260358572E-003
   2.2611111111111111         -9.9687604233622551E-004
   2.2711111111111113         -8.8744459208101034E-004
   2.2811111111111111         -7.6787581201642752E-004
   2.2911111111111113         -6.4294721232727170E-004
   2.3011111111111111         -5.1766412798315287E-004
   2.3111111111111113         -3.9698506589047611E-004
   2.3211111111111111         -2.8552018920890987E-004
   2.3311111111111114         -1.8723036919254810E-004
   2.3411111111111111         -1.0515405301703140E-004
   2.3511111111111114         -4.1183840949088335E-005
   2.3611111111111112          4.0876821003621444E-006
   2.3711111111111114          3.1435240089194849E-005
   2.3811111111111112          4.2963878513546661E-005
   2.3911111111111114          4.1954754124162719E-005
   2.4011111111111112          3.2591749913990498E-005
   2.4111111111111114          1.9585595509852283E-005
   2.4211111111111112          7.7322138167801313E-006
   2.4311111111111114          1.4572822237823857E-006
   2.4411111111111112          4.4026173782185651E-006
   2.4511111111111110          1.9102197256870568E-005
   2.4611111111111112          4.6779052354395390E-005
   2.4711111111111110          8.7275831901933998E-005
   2.4811111111111113          1.3911657151766121E-004
   2.4911111111111111          1.9968629931099713E-004
   2.5011111111111113          2.6550740585662425E-004
   2.5111111111111111          3.3258410985581577E-004
   2.5211111111111113          3.9677842869423330E-004
   2.5311111111111111          4.5417522778734565E-004
   2.5411111111111113          5.0139456288889050E-004
   2.5511111111111111          5.3581874817609787E-004
   2.5611111111111113          5.5571849225088954E-004
   2.5711111111111111          5.6028284598141909E-004
   2.5811111111111114          5.4957199608907104E-004
   2.5911111111111111          5.2442052401602268E-004
   2.6011111111111114          4.8631519894115627E-004
   2.6111111111111112          4.3726302101276815E-004
   2.6211111111111114          3.7965876981616020E-004
   2.6311111111111112          3.1615502666682005E-004
   2.6411111111111114          2.4953801766969264E-004
   2.6511111111111112          1.8261288641951978E-004
   2.6611111111111114          1.1810133582912385E-004
   2.6711111111111112          5.8550853282213211E-005
   2.6811111111111114          6.2502249420504086E-006
   2.6911111111111112         -3.6855446523986757E-005
   2.7011111111111110         -6.9253277615644038E-005
   2.7111111111111112         -8.9950255642179400E-005
   2.7211111111111110         -9.8547185189090669E-005
   2.7311111111111113         -9.5281917310785502E-005
   2.7411111111111111         -8.1027690612245351E-005
   2.7511111111111113         -5.7241122703999281E-005
   2.7611111111111111         -2.5864695999189280E-005
   2.7711111111111113          1.0803542863868643E-005
   2.7811111111111111          5.0257964176125824E-005
   2.7911111111111113          8.9938366727437824E-005
   2.8011111111111111          1.2737877841573209E-004
   2.8111111111111113          1.6034484724514186E-004
   2.8211111111111111          1.8695196195039898E-004
   2.8311111111111114          2.0575473899953067E-004
   2.8411111111111111          2.1579950407613069E-004
   2.8511111111111114          2.1663647203240544E-004
   2.8611111111111112          2.0829707500524819E-004
   2.8711111111111114          1.9125053950119764E-004
   2.8811111111111112          1.6635880456306040E-004
   2.8911111111111114          1.3484731607604772E-004
   2.9011111111111112          9.8302509286440909E-005
   2.9111111111111114          5.8697896747617051E-005
   2.9211111111111112          1.8442566215526313E-005
   2.9311111111111114         -1.9558265194064006E-005
   2.9411111111111112         -5.1843198889400810E-005
   2.9511111111111110         -7.4348892667330801E-005
   2.9611111111111112         -8.2394821220077574E-005
   2.9711111111111110         -7.0717411290388554E-005
   2.9811111111111113         -3.3573112887097523E-005
   2.9911111111111111          3.5074703191639856E-005
   3.0011111111111113          1.4128141629043967E-004
   3.0111111111111111          2.9077107319608331E-004
   3.0211111111111113          4.8853899352252483E-004
   3.0311111111111111          7.3844729922711849E-004
   3.0411111111111113          1.0428567184135318E-003
   3.0511111111111111          1.4023364055901766E-003
   3.0611111111111113          1.8154814606532454E-003
   3.0711111111111111          2.2788571659475565E-003
   3.0811111111111114          2.7870733756572008E-003
   3.0911111111111111          3.3329809084534645E-003
   3.1011111111111114          3.9079654961824417E-003
   3.1111111111111112          4.5023015700280666E-003
   3.1211111111111109          5.1055261865258217E-003
   3.1311111111111116          5.7067787274718285E-003
   3.1411111111111114          6.2950630672276020E-003
   3.1511111111111112          6.8594072945415974E-003
   3.1611111111111110          7.3889121413230896E-003
   3.1711111111111117          7.8726997599005699E-003
   3.1811111111111114          8.2997959107160568E-003
   3.1911111111111112          8.6589921265840530E-003
   3.2011111111111110          8.9387344196438789E-003
   3.2111111111111108          9.1270767152309418E-003
   3.2211111111111115          9.2117302119731903E-003
   3.2311111111111113          9.1802412644028664E-003
   3.2411111111111111          9.0202847495675087E-003
   3.2511111111111108          8.7200822308659554E-003
   3.2611111111111115          8.2689141854643822E-003
   3.2711111111111113          7.6576946303248405E-003
   3.2811111111111111          6.8795797415077686E-003
   3.2911111111111109          5.9305657632648945E-003
   3.3011111111111116          4.8100454732775688E-003
   3.3111111111111113          3.5213050432503223E-003
   3.3211111111111111          2.0719380117952824E-003
   3.3311111111111109          4.7417022869922221E-004
   3.3411111111111116         -1.2549200328066945E-003
   3.3511111111111114         -3.0933059751987457E-003
   3.3611111111111112         -5.0140623934566975E-003
   3.3711111111111109         -6.9855907931923866E-003
   3.3811111111111116         -8.9720496907830238E-003
   3.3911111111111114         -1.0934012942016125E-002
   3.4011111111111112         -1.2829376384615898E-002
   3.4111111111111110         -1.4614500105381012E-002
   3.4211111111111117         -1.6245575621724129E-002
   3.4311111111111114         -1.7680170014500618E-002
   3.4411111111111112         -1.8878867849707603E-002
   3.4511111111111110         -1.9806947559118271E-002
   3.4611111111111117         -2.0435966551303864E-002
   3.4711111111111115         -2.0745160058140755E-002
   3.4811111111111113         -2.0722554996609688E-002
   3.4911111111111111         -2.0365701988339424E-002
   3.5011111111111108         -1.9681988283991814E-002
   3.5111111111111115         -1.8688492476940155E-002
   3.5211111111111113         -1.7411371693015099E-002
   3.5311111111111111         -1.5884833410382271E-002
   3.5411111111111109         -1.4149750582873821E-002
   3.5511111111111116         -1.2251994572579861E-002
   3.5611111111111113         -1.0240596719086170E-002
   3.5711111111111111         -8.1658363342285156E-003
   3.5811111111111109         -6.0773557052016258E-003
   3.5911111111111116         -4.0224026888608932E-003
   3.6011111111111114         -2.0442823879420757E-003
   3.6111111111111112         -1.8108225776813924E-004
   3.6211111111111109          1.5352820046246052E-003
   3.6311111111111116          3.0796730425208807E-003
   3.6411111111111114          4.4339909218251705E-003
   3.6511111111111112          5.5871028453111649E-003
   3.6611111111111110          6.5344912000000477E-003
   3.6711111111111117          7.2776656597852707E-003
   3.6811111111111114          7.8234160318970680E-003
   3.6911111111111112          8.1829708069562912E-003
   3.7011111111111110          8.3711165934801102E-003
   3.7111111111111117          8.4053445607423782E-003
   3.7211111111111115          8.3050513640046120E-003
   3.7311111111111113          8.0908313393592834E-003
   3.7411111111111111          7.7838636934757233E-003
   3.7511111111111108          7.4053942225873470E-003
   3.7611111111111115          6.9762854836881161E-003
   3.7711111111111113          6.5166233107447624E-003
   3.7811111111111111          6.0453466139733791E-003
   3.7911111111111109          5.5798948742449284E-003
   3.8011111111111116          5.1358700729906559E-003
   3.8111111111111113          4.7267228364944458E-003
   3.8211111111111111          4.3634828180074692E-003
   3.8311111111111109          4.0545524097979069E-003
   3.8411111111111116          3.8055831100791693E-003
   3.8511111111111114          3.6194403655827045E-003
   3.8611111111111112          3.4962678328156471E-003
   3.8711111111111109          3.4336391836404800E-003
   3.8811111111111116          3.4267914015799761E-003
   3.8911111111111114          3.4689223393797874E-003
   3.9011111111111112          3.5515355411916971E-003
   3.9111111111111110          3.6648104432970285E-003
   3.9211111111111117          3.7979802582412958E-003
   3.9311111111111114          3.9397068321704865E-003
   3.9411111111111112          4.0784478187561035E-003
   3.9511111111111110          4.2028184980154037E-003
   3.9611111111111117          4.3019508011639118E-003
   3.9711111111111115          4.3658497743308544E-003
   3.9811111111111113          4.3857372365891933E-003
   3.9911111111111111          4.3543688952922821E-003
   4.0011111111111113          4.2662960477173328E-003
   4.0111111111111111          4.1180485859513283E-003
   4.0211111111111109          3.9082225412130356E-003
   4.0311111111111106          3.6374696064740419E-003
   4.0411111111111104          3.3083923626691103E-003
   4.0511111111111120          2.9253633692860603E-003
   4.0611111111111118          2.4942904710769653E-003
   4.0711111111111116          2.0223513711243868E-003
   4.0811111111111114          1.5177220338955522E-003
   4.0911111111111111          9.8931777756661177E-004
   4.1011111111111109          4.4656248064711690E-004
   4.1111111111111107         -1.0081044456455857E-004
   4.1211111111111105         -6.4293446484953165E-004
   4.1311111111111121         -1.1699812021106482E-003
   4.1411111111111119         -1.6723521985113621E-003
   4.1511111111111116         -2.1409110631793737E-003
   4.1611111111111114         -2.5672658812254667E-003
   4.1711111111111112         -2.9440883081406355E-003
   4.1811111111111110         -3.2654434908181429E-003
   4.1911111111111108         -3.5270857624709606E-003
   4.2011111111111106         -3.7266800645738840E-003
   4.2111111111111121         -3.8639123085886240E-003
   4.2211111111111119         -3.9404686540365219E-003
   4.2311111111111117         -3.9598853327333927E-003
   4.2411111111111115         -3.9272829890251160E-003
   4.2511111111111113         -3.8490151055157185E-003
   4.2611111111111111         -3.7322707939893007E-003
   4.2711111111111109         -3.5846782848238945E-003
   4.2811111111111106         -3.4139582421630621E-003
   4.2911111111111104         -3.2276590354740620E-003
   4.3011111111111120         -3.0329977162182331E-003
   4.3111111111111118         -2.8368071652948856E-003
   4.3211111111111116         -2.6455589104443789E-003
   4.3311111111111114         -2.4654234293848276E-003
   4.3411111111111111         -2.3023202084004879E-003
   4.3511111111111109         -2.1619158796966076E-003
   4.3611111111111107         -2.0495506469160318E-003
   4.3711111111111105         -1.9700899720191956E-003
   4.3811111111111121         -1.9277187529951334E-003
   4.3911111111111119         -1.9257076783105731E-003
   4.4011111111111116         -1.9661823753267527E-003
   4.4111111111111114         -2.0499234087765217E-003
   4.4211111111111112         -2.1762249525636435E-003
   4.4311111111111110         -2.3428217973560095E-003
   4.4411111111111108         -2.5458945892751217E-003
   4.4511111111111106         -2.7801396790891886E-003
   4.4611111111111121         -3.0388857703655958E-003
   4.4711111111111119         -3.3142280299216509E-003
   4.4811111111111117         -3.5971489269286394E-003
   4.4911111111111115         -3.8776106666773558E-003
   4.5011111111111113         -4.1446187533438206E-003
   4.5111111111111111         -4.3862825259566307E-003
   4.5211111111111109         -4.5899143442511559E-003
   4.5311111111111106         -4.7422186471521854E-003
   4.5411111111111104         -4.8296181485056877E-003
   4.5511111111111120         -4.8387506976723671E-003