 -0.88888888888888884          0.0000000000000000     
 -0.87888888888888883          0.0000000000000000     
 -0.86888888888888882          0.0000000000000000     
 -0.85888888888888881          0.0000000000000000     
 -0.84888888888888880          0.0000000000000000     
 -0.83888888888888880          1.0342031440958141E-035
 -0.82888888888888879          1.0977024535311465E-034
 -0.81888888888888878          2.2446640621183483E-032
 -0.80888888888888888          1.2684372802081884E-031
 -0.79888888888888887          2.9776865876668258E-031
 -0.78888888888888886          6.7518430084677620E-031
 -0.77888888888888885          3.7612407471509374E-030
 -0.76888888888888884          1.7556622395858830E-029
 -0.75888888888888884          4.7936411362125991E-029
 -0.74888888888888883          6.4446238171063441E-029
 -0.73888888888888882         -3.6627004663147260E-029
 -0.72888888888888881         -3.6248676188578047E-028
 -0.71888888888888880         -7.3257324333211296E-028
 -0.70888888888888890         -3.3617798106646751E-028
 -0.69888888888888889          1.9575666178047017E-027
 -0.68888888888888888          5.8436393038902515E-027
 -0.67888888888888888          6.9973911334207467E-027
 -0.66888888888888887         -2.8504339029984462E-027
 -0.65888888888888886         -2.8229954487109535E-026
 -0.64888888888888885         -5.4570205001713780E-026
 -0.63888888888888884         -3.8076352987218920E-026
 -0.62888888888888883          7.3805931063066839E-026
 -0.61888888888888882          2.7394139101695571E-025
 -0.60888888888888881          4.0655968206634472E-025
 -0.59888888888888880          1.5367981718694863E-025
 -0.58888888888888880         -7.7597515815706604E-025
 -0.57888888888888879         -2.2187237551842929E-024
 -0.56888888888888878         -3.0962788557772450E-024
 -0.55888888888888877         -1.4243333294481344E-024
 -0.54888888888888876          4.6399946475322276E-024
 -0.53888888888888875          1.4590269587432114E-023
 -0.52888888888888885          2.3115858577059232E-023
 -0.51888888888888884          1.9510584379912817E-023
 -0.50888888888888884         -8.5146001572173893E-024
 -0.49888888888888883         -6.5447176047613617E-023
 -0.48888888888888882         -1.3541408332003671E-022
 -0.47888888888888881         -1.7359612495776065E-022
 -0.46888888888888886         -1.1208293513561180E-022
 -0.45888888888888885          1.1095203676366144E-022
 -0.44888888888888884          4.9897297558658490E-022
 -0.43888888888888883          9.3805401566165668E-022
 -0.42888888888888882          1.1654630508864249E-021
 -0.41888888888888881          8.1025350030605936E-022
 -0.40888888888888886         -4.5958753610427717E-022
 -0.39888888888888885         -2.6873262390966984E-021
 -0.38888888888888884         -5.3445237976302165E-021
 -0.37888888888888883         -7.1595050800007435E-021
 -0.36888888888888882         -6.2503677516292599E-021
 -0.35888888888888881         -7.3005656277319604E-022
 -0.34888888888888880          1.0190403896526575E-020
 -0.33888888888888880          2.4839613409508006E-020
 -0.32888888888888879          3.8036598305021060E-020
 -0.31888888888888878          4.1190334250304583E-020
 -0.30888888888888888          2.4374398631955087E-020
 -0.29888888888888887         -1.9279636527289002E-020
 -0.28888888888888886         -8.7561171430058067E-020
 -0.27888888888888885         -1.6362440309865834E-019
 -0.26888888888888884         -2.1422160652715214E-019
 -0.25888888888888884         -1.9529174622993803E-019
 -0.24888888888888883         -6.6908339153335746E-020
 -0.23888888888888882          1.8408485772182526E-019
 -0.22888888888888881          5.2049455995619600E-019
 -0.21888888888888880          8.4151239554490972E-019
 -0.20888888888888879          9.9218598075964622E-019
 -0.19888888888888878          8.0341798830106371E-019
 -0.18888888888888877          1.5934252850717173E-019
 -0.17888888888888888         -9.2561810397655847E-019
 -0.16888888888888887         -2.2499726251748629E-018
 -0.15888888888888886         -3.4214270494433795E-018
 -0.14888888888888885         -3.9274130165517603E-018
 -0.13888888888888884         -3.2760854187583716E-018
 -0.12888888888888883         -1.1738457000218309E-018
 -0.11888888888888882          2.3163807527021514E-018
 -0.10888888888888881          6.6928105668048466E-018
  -9.8888888888888804E-002     1.1041038071512853E-017
  -8.8888888888888795E-002     1.4161648069901829E-017
  -7.8888888888888786E-002     1.4757353768560468E-017
  -6.8888888888888777E-002     1.1631106534296942E-017
  -5.8888888888888768E-002     3.8780696250614408E-018
  -4.8888888888888871E-002    -8.8902973413423011E-018
  -3.8888888888888862E-002    -2.6212006961768211E-017
  -2.8888888888888853E-002    -4.6276728557119990E-017
  -1.8888888888888844E-002    -6.5329500552131547E-017
  -8.8888888888888351E-003    -7.7234032465088505E-017
   1.1111111111111738E-003    -7.3640508421251937E-017
   1.1111111111111183E-002    -4.5260633127549652E-017
   2.1111111111111192E-002     1.5430109686917196E-017
   3.1111111111111200E-002     1.1020103122825871E-016
   4.1111111111111209E-002     2.3056779454743890E-016
   5.1111111111111218E-002     3.5419061207286873E-016
   6.1111111111111227E-002     4.4391654747772075E-016
   7.1111111111111125E-002     4.5108739606027765E-016
   8.1111111111111134E-002     3.2410064012438657E-016
   9.1111111111111143E-002     2.2199785598553226E-017
  0.10111111111111115         -4.6672235371717115E-016
  0.11111111111111116         -1.1067822709142912E-015
  0.12111111111111117         -1.7970919941907989E-015
  0.13111111111111118         -2.3626184118645793E-015
  0.14111111111111119         -2.5603552887857803E-015
  0.15111111111111120         -2.1096126351350351E-015
  0.16111111111111120         -7.5440947095556897E-016
  0.17111111111111121          1.6393552952916166E-015
  0.18111111111111122          4.9609864217407644E-015
  0.19111111111111123          8.7333323556325164E-015
  0.20111111111111124          1.2039734782602098E-014
  0.21111111111111125          1.3561498929046123E-014
  0.22111111111111126          1.1785121760855138E-014
  0.23111111111111127          5.4081113976737864E-015
  0.24111111111111128         -6.0902528646025657E-015
  0.25111111111111128         -2.1833331312597765E-014
  0.26111111111111129         -3.9093751971535848E-014
  0.27111111111111108         -5.3259832525145989E-014
  0.28111111111111109         -5.8452835670699810E-014
  0.29111111111111110         -4.8893597910616357E-014
  0.30111111111111111         -2.0880000812660733E-014
  0.31111111111111112          2.5059400287816801E-014
  0.32111111111111112          8.2535120773420678E-014
  0.33111111111111113          1.3900329726233146E-013
  0.34111111111111114          1.7747440886686783E-013
  0.35111111111111115          1.8042423837513061E-013
  0.36111111111111116          1.3537239905436760E-013
  0.37111111111111117          4.0762251023564525E-014
  0.38111111111111118         -8.9870256690053468E-014
  0.39111111111111119         -2.2759040745751191E-013
  0.40111111111111120         -3.3315101437107753E-013
  0.41111111111111120         -3.6756055555968448E-013
  0.42111111111111121         -3.0619482101722217E-013
  0.43111111111111122         -1.5244424646232435E-013
  0.44111111111111123          5.4456439357863928E-014
  0.45111111111111124          2.4261143224610371E-013
  0.46111111111111125          3.2468344961407436E-013
  0.47111111111111126          2.2803826426991136E-013
  0.48111111111111127         -6.8610149842312368E-014
  0.49111111111111128         -5.0346505393525365E-013
  0.50111111111111128         -9.1897019507958255E-013
  0.51111111111111129         -1.0810030171351515E-012
  0.52111111111111108         -7.3632392500952437E-013
  0.53111111111111109          2.9647844509289589E-013
  0.54111111111111110          2.0210129143133360E-012
  0.55111111111111111          4.1730716104915189E-012
  0.56111111111111112          6.1842679414947366E-012
  0.57111111111111112          7.2336355655400197E-012
  0.58111111111111113          6.4056403410728269E-012
  0.59111111111111114          2.9456450299780723E-012
  0.60111111111111115         -3.4303894360515619E-012
  0.61111111111111116         -1.2247779179741514E-011
  0.62111111111111117         -2.2102946209412444E-011
  0.63111111111111118         -3.0706267389879471E-011
  0.64111111111111119         -3.5203680248674374E-011
  0.65111111111111120         -3.2785493070397465E-011
  0.66111111111111120         -2.1513801157224677E-011
  0.67111111111111121         -1.2187485179046553E-012
  0.68111111111111122          2.5749569143584949E-011
  0.69111111111111123          5.4150729039692536E-011
  0.70111111111111124          7.6070497123659209E-011
  0.71111111111111125          8.1833970155820168E-011
  0.72111111111111126          6.1577978827109803E-011
  0.73111111111111127          7.2688994580405453E-012
  0.74111111111111128         -8.5218394840769207E-011
  0.75111111111111128         -2.1445441256151554E-010
  0.76111111111111129         -3.7276123854290688E-010
  0.77111111111111130         -5.4689264228358070E-010
  0.78111111111111109         -7.2028633057996672E-010
  0.79111111111111110         -8.7675944282494811E-010
  0.80111111111111111         -1.0051574017566622E-009
  0.81111111111111112         -1.1040383052218772E-009
  0.82111111111111112         -1.1851686299024777E-009
  0.83111111111111113         -1.2743572863627151E-009
  0.84111111111111114         -1.4080934196414319E-009
  0.85111111111111115         -1.6244542377918947E-009
  0.86111111111111116         -1.9468391343480107E-009
  0.87111111111111117         -2.3591018027957489E-009
  0.88111111111111118         -2.7705713279146948E-009
  0.89111111111111119         -2.9688731473243024E-009
  0.90111111111111120         -2.5574535822414646E-009
  0.91111111111111120         -8.7319440567057427E-010
  0.92111111111111121          3.1231421893096467E-009
  0.93111111111111122          1.0994288146548570E-008
  0.94111111111111123          2.5027270922350908E-008
  0.95111111111111124          4.8509644301475419E-008
  0.96111111111111125          8.6110894415014627E-008
  0.97111111111111126          1.4440811924032460E-007
  0.98111111111111127          2.3260756165655039E-007
  0.99111111111111128          3.6352901133795967E-007
   1.0011111111111113          5.5492887440777849E-007
   1.0111111111111113          8.3126684558010311E-007
   1.0211111111111113          1.2260335324754124E-006
   1.0311111111111111          1.7847854678620934E-006
   1.0411111111111111          2.5690560505609028E-006
   1.0511111111111111          3.6613425891118823E-006
   1.0611111111111111          5.1714036999328528E-006
   1.0711111111111111          7.2441075644746888E-006
   1.0811111111111111          1.0069144082081039E-005
   1.0911111111111111          1.3892900824430399E-005
   1.1011111111111112          1.9032841009902768E-005
   1.1111111111111112          2.5894700229400769E-005
   1.1211111111111114          3.4992866858374327E-005
   1.1311111111111112          4.6974171709734946E-005
   1.1411111111111114          6.2645274738315493E-005
   1.1511111111111112          8.3003695181105286E-005
   1.1611111111111110          1.0927233961410820E-004
   1.1711111111111112          1.4293711865320802E-004
   1.1811111111111110          1.8578665913082659E-004
   1.1911111111111112          2.3995329684112221E-004
   1.2011111111111110          3.0795295606367290E-004
   1.2111111111111112          3.9272214053198695E-004
   1.2211111111111110          4.9764860887080431E-004
   1.2311111111111113          6.2659214017912745E-004
   1.2411111111111111          7.8389135887846351E-004
   1.2511111111111113          9.7435095813125372E-004
   1.2611111111111111          1.2032045051455498E-003
   1.2711111111111113          1.4760470949113369E-003
   1.2811111111111111          1.7987316241487861E-003
   1.2911111111111113          2.1772249601781368E-003
   1.3011111111111111          2.6174176018685102E-003
   1.3111111111111113          3.1248873565346003E-003
   1.3211111111111111          3.7046114448457956E-003
   1.3311111111111114          4.3606334365904331E-003
   1.3411111111111111          5.0956867635250092E-003
   1.3511111111111114          5.9107826091349125E-003
   1.3611111111111112          6.8047759123146534E-003
   1.3711111111111114          7.7739250846207142E-003
   1.3811111111111112          8.8114645332098007E-003
   1.3911111111111114          9.9072121083736420E-003
   1.4011111111111112          1.1047236621379852E-002
   1.4111111111111114          1.2213615700602531E-002
   1.4211111111111112          1.3384308665990829E-002
   1.4311111111111110          1.4533176086843014E-002
   1.4411111111111112          1.5630161389708519E-002
   1.4511111111111110          1.6641665250062943E-002
   1.4611111111111112          1.7531117424368858E-002
   1.4711111111111110          1.8259748816490173E-002
   1.4811111111111113          1.8787575885653496E-002
   1.4911111111111111          1.9074557349085808E-002
   1.5011111111111113          1.9081918522715569E-002
   1.5111111111111111          1.8773589283227921E-002
   1.5211111111111113          1.8117710947990417E-002
   1.5311111111111111          1.7088165506720543E-002
   1.5411111111111113          1.5666048973798752E-002
   1.5511111111111111          1.3841031119227409E-002
   1.5611111111111113          1.1612522415816784E-002
   1.5711111111111111          8.9905969798564911E-003
   1.5811111111111114          5.9965937398374081E-003
   1.5911111111111111          2.6633671950548887E-003
   1.6011111111111114         -9.6486898837611079E-004
   1.6111111111111112         -4.8331078141927719E-003
   1.6211111111111114         -8.8765369728207588E-003
   1.6311111111111112         -1.3021933846175671E-002
   1.6411111111111114         -1.7189420759677887E-002
   1.6511111111111112         -2.1294536069035530E-002
   1.6611111111111114         -2.5250555947422981E-002
   1.6711111111111112         -2.8970967978239059E-002
   1.6811111111111110         -3.2372027635574341E-002
   1.6911111111111112         -3.5375285893678665E-002
   1.7011111111111110         -3.7910003215074539E-002
   1.7111111111111112         -3.9915338158607483E-002
   1.7211111111111110         -4.1342280805110931E-002
   1.7311111111111113         -4.2155187577009201E-002
   1.7411111111111111         -4.2332910001277924E-002
   1.7511111111111113         -4.1869476437568665E-002
   1.7611111111111111         -4.0774285793304443E-002
   1.7711111111111113         -3.9071813225746155E-002
   1.7811111111111111         -3.6800872534513474E-002
   1.7911111111111113         -3.4013412892818451E-002
   1.8011111111111111         -3.0772965401411057E-002
   1.8111111111111113         -2.7152739465236664E-002
   1.8211111111111111         -2.3233465850353241E-002
   1.8311111111111114         -1.9101055338978767E-002
   1.8411111111111111         -1.4844152145087719E-002
   1.8511111111111114         -1.0551656596362591E-002
   1.8611111111111112         -6.3103046268224716E-003
   1.8711111111111114         -2.2023697383701801E-003
   1.8811111111111112          1.6964385285973549E-003
   1.8911111111111114          5.3188255988061428E-003
   1.9011111111111112          8.6074573919177055E-003
   1.9111111111111114          1.1516166850924492E-002
   1.9211111111111112          1.4010787941515446E-002
   1.9311111111111110          1.6069600358605385E-002
   1.9411111111111112          1.7683383077383041E-002
   1.9511111111111110          1.8855081871151924E-002
   1.9611111111111112          1.9599113613367081E-002
   1.9711111111111110          1.9940333440899849E-002
   1.9811111111111113          1.9912723451852798E-002
   1.9911111111111111          1.9557831808924675E-002
   2.0011111111111113          1.8923044204711914E-002
   2.0111111111111111          1.8059724941849709E-002
   2.0211111111111113          1.7021326348185539E-002
   2.0311111111111111          1.5861507505178452E-002
   2.0411111111111113          1.4632341451942921E-002
   2.0511111111111111          1.3382665812969208E-002
   2.0611111111111113          1.2156639248132706E-002
   2.0711111111111111          1.0992539115250111E-002
   2.0811111111111114          9.9218338727951050E-003
   2.0911111111111111          8.9685562998056412E-003
   2.1011111111111114          8.1489803269505501E-003
   2.1111111111111112          7.4716005474328995E-003
   2.1211111111111114          6.9374023005366325E-003
   2.1311111111111112          6.5403934568166733E-003
   2.1411111111111114          6.2683671712875366E-003
   2.1511111111111112          6.1038536950945854E-003
   2.1611111111111114          6.0252156108617783E-003
   2.1711111111111112          6.0078427195549011E-003
   2.1811111111111114          6.0253930278122425E-003
   2.1911111111111112          6.0510342009365559E-003
   2.2011111111111110          6.0586431063711643E-003
   2.2111111111111112          6.0239201411604881E-003
   2.2211111111111110          5.9253768995404243E-003
   2.2311111111111113          5.7451678439974785E-003
   2.2411111111111111          5.4697399027645588E-003
   2.2511111111111113          5.0902771763503551E-003
   2.2611111111111111          4.6029342338442802E-003
   2.2711111111111113          4.0088552050292492E-003
   2.2811111111111111          3.3139865845441818E-003
   2.2911111111111113          2.5287021417170763E-003
   2.3011111111111111          1.6672632191330194E-003
   2.3111111111111113          7.4714736547321081E-004
   2.3211111111111111         -2.1171929256524891E-004
   2.3311111111111114         -1.1877866927534342E-003
   2.3411111111111111         -2.1587226074188948E-003
   2.3511111111111114         -3.1022371258586645E-003
   2.3611111111111112         -3.9968569763004780E-003
   2.3711111111111114         -4.8226299695670605E-003
   2.3811111111111112         -5.5617373436689377E-003
   2.3911111111111114         -6.1990120448172092E-003
   2.4011111111111112         -6.7223478108644485E-003
   2.4111111111111114         -7.1230046451091766E-003
   2.4211111111111112         -7.3958043940365314E-003
   2.4311111111111114         -7.5392117723822594E-003
   2.4411111111111112         -7.5553026981651783E-003
   2.4511111111111110         -7.4496138840913773E-003
   2.4611111111111112         -7.2308694943785667E-003
   2.4711111111111110         -6.9105876609683037E-003
   2.4811111111111113         -6.5025733783841133E-003
   2.4911111111111111         -6.0223112814128399E-003
   2.5011111111111113         -5.4862829856574535E-003
   2.5111111111111111         -4.9112429842352867E-003
   2.5211111111111113         -4.3134968727827072E-003
   2.5311111111111111         -3.7082298658788204E-003
   2.5411111111111113         -3.1089319381862879E-003
   2.5511111111111111         -2.5269635953009129E-003
   2.5611111111111113         -1.9712848588824272E-003
   2.5711111111111111         -1.4483657432720065E-003
   2.5811111111111114         -9.6226751338690519E-004
   2.5911111111111111         -5.1487400196492672E-004
   2.6011111111111114         -1.0623449634294957E-004
   2.6111111111111112          2.6502762921154499E-004
   2.6211111111111114          6.0128874611109495E-004
   2.6311111111111112          9.0552563779056072E-004
   2.6411111111111114          1.1809748830273747E-003
   2.6511111111111112          1.4308687532320619E-003
   2.6611111111111114          1.6582491807639599E-003
   2.6711111111111112          1.8658435437828302E-003
   2.6811111111111114          2.0559814292937517E-003
   2.6911111111111112          2.2305224556475878E-003
   2.7011111111111110          2.3907753638923168E-003
   2.7111111111111112          2.5373965036123991E-003
   2.7211111111111110          2.6702713221311569E-003
   2.7311111111111113          2.7883967850357294E-003
   2.7411111111111111          2.8897973243147135E-003
   2.7511111111111113          2.9715066775679588E-003
   2.7611111111111111          3.0296535696834326E-003
   2.7711111111111113          3.0596721917390823E-003
   2.7811111111111111          3.0566456262022257E-003
   2.7911111111111113          3.0157668516039848E-003
   2.8011111111111111          2.9328798409551382E-003
   2.8111111111111113          2.8050455730408430E-003
   2.8211111111111111          2.6310640387237072E-003
   2.8311111111111114          2.4118842557072639E-003
   2.8411111111111111          2.1508445497602224E-003
   2.8511111111111114          1.8537029391154647E-003
   2.8611111111111112          1.5284484252333641E-003
   2.8711111111111114          1.1849097209051251E-003
   2.8811111111111112          8.3420524606481194E-004
   2.8911111111111114          4.8809711006470025E-004
   2.9011111111111112          1.5831849304959178E-004
   2.9111111111111114         -1.4405819820240140E-004
   2.9211111111111112         -4.0915847057476640E-004
   2.9311111111111114         -6.2871520640328526E-004
   2.9411111111111112         -7.9634034773334861E-004
   2.9511111111111110         -9.0767227811738849E-004
   2.9611111111111112         -9.6042721997946501E-004
   2.9711111111111110         -9.5439178403466940E-004
   2.9811111111111113         -8.9139048941433430E-004
   2.9911111111111111         -7.7524984953925014E-004
   3.0011111111111113         -6.1176304006949067E-004
   3.0111111111111111         -4.0863853064365685E-004
   3.0211111111111113         -1.7540183034725487E-004
   3.0311111111111111          7.6790260209236294E-005
   3.0411111111111113          3.3545913174748421E-004
   3.0511111111111111          5.8726139832288027E-004
   3.0611111111111113          8.1859511556103826E-004
   3.0711111111111111          1.0163302067667246E-003
   3.0811111111111114          1.1686127400025725E-003
   3.0911111111111111          1.2656719190999866E-003
   3.1011111111111114          1.3005462242290378E-003
   3.1111111111111112          1.2696485500782728E-003
   3.1211111111111109          1.1730998521670699E-003
   3.1311111111111116          1.0147882858291268E-003
   3.1411111111111114          8.0213911132887006E-004
   3.1511111111111112          5.4561538854613900E-004
   3.1611111111111110          2.5799850118346512E-004
   3.1711111111111117         -4.6479915909003466E-005
   3.1811111111111114         -3.5307335201650858E-004
   3.1911111111111112         -6.4744136761873960E-004
   3.2011111111111110         -9.1648573288694024E-004
   3.2111111111111108         -1.1490487959235907E-003
   3.2211111111111115         -1.3364430051296949E-003
   3.2311111111111113         -1.4727981761097908E-003
   3.2411111111111111         -1.5552325639873743E-003
   3.2511111111111108         -1.5838627004995942E-003
   3.2611111111111115         -1.5616735909134150E-003
   3.2711111111111113         -1.4942722627893090E-003
   3.2811111111111111         -1.3895439915359020E-003
   3.2911111111111109         -1.2572266859933734E-003
   3.3011111111111116         -1.1084174038842320E-003
   3.3111111111111113         -9.5502112526446581E-004
   3.3211111111111111         -8.0915633589029312E-004
   3.3311111111111109         -6.8253395147621632E-004
   3.3411111111111116         -5.8583368081599474E-004
   3.3511111111111114         -5.2810611668974161E-004
   3.3611111111111112         -5.1623251056298614E-004
   3.3711111111111109         -5.5447401246055961E-004
   3.3811111111111116         -6.4414070220664144E-004
   3.3911111111111114         -7.8340352047234774E-004
   3.4011111111111112         -9.6726638730615377E-004
   3.4111111111111110         -1.1877067154273391E-003
   3.4211111111111117         -1.4339830959215760E-003
   3.4311111111111114         -1.6931011341512203E-003
   3.4411111111111112         -1.9504158990457654E-003
   3.4511111111111110         -2.1903438027948141E-003
   3.4611111111111117         -2.3971423506736755E-003
   3.4711111111111115         -2.5557121261954308E-003
   3.4811111111111113         -2.6523675769567490E-003
   3.4911111111111111         -2.6755256112664938E-003
   3.5011111111111108         -2.6162602007389069E-003
   3.5111111111111115         -2.4686879478394985E-003
   3.5211111111111113         -2.2301618009805679E-003
   3.5311111111111111         -1.9012741977348924E-003
   3.5411111111111109         -1.4856894267722964E-003
   3.5511111111111116         -9.8985235672444105E-004
   3.5611111111111113         -4.2263010982424021E-004
   3.5711111111111111          2.0504933490883559E-004
   3.5811111111111109          8.8050565682351589E-004
   3.5911111111111116          1.5895270043984056E-003
   3.6011111111111114          2.3164986632764339E-003
   3.6111111111111112          3.0444688163697720E-003
   3.6211111111111109          3.7552136927843094E-003
   3.6311111111111116          4.4293832033872604E-003
   3.6411111111111114          5.0468123517930508E-003
   3.6511111111111112          5.5870693176984787E-003
   3.6611111111111110          6.0302685014903545E-003
   3.6711111111111117          6.3581396825611591E-003
   3.6811111111111114          6.5552722662687302E-003
   3.6911111111111112          6.6104154102504253E-003
   3.7011111111111110          6.5176747739315033E-003
   3.7111111111111117          6.2774335965514183E-003
   3.7211111111111115          5.8968467637896538E-003
   3.7311111111111113          5.3897979669272900E-003
   3.7411111111111111          4.7762831673026085E-003
   3.7511111111111108          4.0812580846250057E-003
   3.7611111111111115          3.3330642618238926E-003
   3.7711111111111113          2.5616041384637356E-003
   3.7811111111111111          1.7964666476473212E-003
   3.7911111111111109          1.0652057826519012E-003
   3.8011111111111116          3.9193109842017293E-004
   3.8111111111111113         -2.0368235709611326E-004
   3.8211111111111111         -7.0693262387067080E-004
   3.8311111111111109         -1.1082139099016786E-003
   3.8411111111111116         -1.4028137084096670E-003
   3.8511111111111114         -1.5905026812106371E-003
   3.8611111111111112         -1.6750331269577146E-003
   3.8711111111111109         -1.6636361833661795E-003
   3.8811111111111116         -1.5665622195228934E-003
   3.8911111111111114         -1.3966588303446770E-003
   3.9011111111111112         -1.1689377715811133E-003
   3.9111111111111110         -9.0006308164447546E-004
   3.9211111111111117         -6.0769432457163930E-004
   3.9311111111111114         -3.0965320183895528E-004
   3.9411111111111112         -2.2929651095182635E-005
   3.9511111111111110          2.3739764583297074E-004
   3.9611111111111117          4.5920480624772608E-004
   3.9711111111111115          6.3418084755539894E-004
   3.9811111111111113          7.5835594907402992E-004
   3.9911111111111111          8.3219195948913693E-004
   4.0011111111111113          8.6019246373325586E-004
   4.0111111111111111          8.5006968583911657E-004
   4.0211111111111109          8.1158359535038471E-004
   4.0311111111111106          7.5523019768297672E-004
   4.0411111111111104          6.9098453968763351E-004
   4.0511111111111120          6.2729330966249108E-004
   4.0611111111111118          5.7046266738325357E-004
   4.0711111111111116          5.2450801013037562E-004
   4.0811111111111114          4.9143919022753835E-004
   4.0911111111111111          4.7186639858409762E-004
   4.1011111111111109          4.6574830776080489E-004
   4.1111111111111107          4.7307822387665510E-004
   4.1211111111111105          4.9432081868872046E-004
   4.1311111111111121          5.3047022083774209E-004
   4.1411111111111119          5.8268680004402995E-004
   4.1511111111111116          6.5156648634001613E-004
   4.1611111111111114          7.3618435999378562E-004
   4.1711111111111112          8.3311251364648342E-004
   4.1811111111111110          9.3563331756740808E-004
   4.1911111111111108          1.0333438403904438E-003
   4.2011111111111106          1.1122854193672538E-003
   4.2111111111111121          1.1556405806913972E-003
   4.2211111111111119          1.1449467856436968E-003
   4.2311111111111117          1.0616817744448781E-003
   4.2411111111111115          8.8902231073006988E-004
   4.2511111111111113          6.1354669742286205E-004
   4.2611111111111111          2.2667122539132833E-004
   4.2711111111111109         -2.7434327057562768E-004
   4.2811111111111106         -8.8590936502441764E-004
   4.2911111111111104         -1.5981727046892047E-003
   4.3011111111111120         -2.3955630604177713E-003
   4.3111111111111118         -3.2577416859567165E-003
   4.3211111111111116         -4.1608223691582680E-003
   4.3311111111111114         -5.0787525251507759E-003
   4.3411111111111111         -5.9847584925591946E-003
   4.3511111111111109         -6.8527897819876671E-003
   4.3611111111111107         -7.6589263044297695E-003
   4.3711111111111105         -8.3827348425984383E-003
   4.3811111111111121         -9.0085575357079506E-003
   4.3911111111111119         -9.5267212018370628E-003
   4.4011111111111116         -9.9346246570348740E-003
   4.4111111111111114         -1.0237650014460087E-002
   4.4211111111111112         -1.0449832305312157E-002
   4.4311111111111110         -1.0594224557280540E-002
   4.4411111111111108         -1.0702911764383316E-002
   4.4511111111111106         -1.0816661641001701E-002
   4.4611111111111121         -1.0984243825078011E-002
   4.4711111111111119         -1.1261484585702419E-002
   4.4811111111111117         -1.1710164137184620E-002
   4.4911111111111115         -1.2396861799061298E-002
   4.5011111111111113         -1.3391846790909767E-002
   4.5111111111111111         -1.4768096618354321E-002
   4.5211111111111109         -1.6600454226136208E-002
   4.5311111111111106         -1.8964894115924835E-002
   4.5411111111111104         -2.1937832236289978E-002
   4.5511111111111120         -2.5595361366868019E-002