 -0.88888888888888884         -2.2793997117858018E-014
 -0.87888888888888883          1.3759879127490764E-014
 -0.86888888888888882          2.3921369171533285E-014
 -0.85888888888888881          2.0986208579851055E-014
 -0.84888888888888880          4.4608780102976808E-014
 -0.83888888888888880          5.2189301464429169E-014
 -0.82888888888888879         -7.5476890091640686E-014
 -0.81888888888888878         -3.5719926907810950E-013
 -0.80888888888888888         -5.5485233378324561E-013
 -0.79888888888888887         -2.9464451711813666E-013
 -0.78888888888888886          5.2667207617665412E-013
 -0.77888888888888885          1.4012788325523662E-012
 -0.76888888888888884          1.3747527422003358E-012
 -0.75888888888888884         -2.0500658462485610E-013
 -0.74888888888888883         -2.8455840114793851E-012
 -0.73888888888888882         -4.7445571776938422E-012
 -0.72888888888888881         -3.7160808284697477E-012
 -0.71888888888888880          1.1996519229395819E-012
 -0.70888888888888890          8.5374164335294545E-012
 -0.69888888888888889          1.4657773259041385E-011
 -0.68888888888888888          1.5613137518966091E-011
 -0.67888888888888888          9.6530622037405145E-012
 -0.66888888888888887         -1.2275803203815050E-012
 -0.65888888888888886         -1.1957722138855598E-011
 -0.64888888888888885         -1.7435341365112933E-011
 -0.63888888888888884         -1.6790865572935409E-011
 -0.62888888888888883         -1.6611307815384002E-011
 -0.61888888888888882         -3.0208894413741305E-011
 -0.60888888888888881         -7.0285083308974095E-011
 -0.59888888888888880         -1.3465444037574770E-010
 -0.58888888888888880         -1.9005352847045742E-010
 -0.57888888888888879         -1.6628018406628087E-010
 -0.56888888888888878          2.3147766689546323E-011
 -0.55888888888888877          4.2470840733166426E-010
 -0.54888888888888876          9.6646435299163613E-010
 -0.53888888888888875          1.4025133276973634E-009
 -0.52888888888888885          1.3447547519973568E-009
 -0.51888888888888884          4.2702721914089636E-010
 -0.50888888888888884         -1.4243802803903804E-009
 -0.49888888888888883         -3.7403484753895100E-009
 -0.48888888888888882         -5.4741229327248675E-009
 -0.47888888888888881         -5.3415893930264247E-009
 -0.46888888888888886         -2.5212980592215217E-009
 -0.45888888888888885          2.5621218480154084E-009
 -0.44888888888888884          7.8511606105280407E-009
 -0.43888888888888883          1.0120025706328306E-008
 -0.42888888888888882          6.4031455693225325E-009
 -0.41888888888888881         -4.0670098400141796E-009
 -0.40888888888888886         -1.8379624933118066E-008
 -0.39888888888888885         -2.9999483786014025E-008
 -0.38888888888888884         -3.0931321504112930E-008
 -0.37888888888888883         -1.5567154676432438E-008
 -0.36888888888888882          1.5272851427994283E-008
 -0.35888888888888881          5.2126178928801892E-008
 -0.34888888888888880          7.8111845880357578E-008
 -0.33888888888888880          7.3906768705001014E-008
 -0.32888888888888879          2.5152244731430073E-008
 -0.31888888888888878         -7.0225659953848663E-008
 -0.30888888888888888         -1.9747466240005451E-007
 -0.29888888888888887         -3.2508026492905628E-007
 -0.28888888888888886         -4.0988740579450678E-007
 -0.27888888888888885         -4.0656880173628451E-007
 -0.26888888888888884         -2.8016015107823478E-007
 -0.25888888888888884         -2.0149268920022223E-008
 -0.24888888888888883          3.4598198794810742E-007
 -0.23888888888888882          7.4329778954052017E-007
 -0.22888888888888881          1.0494337630007067E-006
 -0.21888888888888880          1.1103554697911022E-006
 -0.20888888888888879          7.7603175441254280E-007
 -0.19888888888888878         -4.5783473012761533E-008
 -0.18888888888888877         -1.3284135320645873E-006
 -0.17888888888888888         -2.8771903544111410E-006
 -0.16888888888888887         -4.3159452616237104E-006
 -0.15888888888888886         -5.1285437621118035E-006
 -0.14888888888888885         -4.7623025238863192E-006
 -0.13888888888888884         -2.7818689432024257E-006
 -0.12888888888888883          9.5624739060440334E-007
 -0.11888888888888882          6.1510068007919472E-006
 -0.10888888888888881          1.1972037100349553E-005
  -9.8888888888888804E-002     1.7082353224395774E-005
  -8.8888888888888795E-002     1.9793842511717230E-005
  -7.8888888888888786E-002     1.8360426111030392E-005
  -6.8888888888888777E-002     1.1388773600629065E-005
  -5.8888888888888768E-002    -1.6829367268655915E-006
  -4.8888888888888871E-002    -2.0119330656598322E-005
  -3.8888888888888862E-002    -4.1544459236320108E-005
  -2.8888888888888853E-002    -6.1844686570111662E-005
  -1.8888888888888844E-002    -7.5431162258610129E-005
  -8.8888888888888351E-003    -7.5931602623313665E-005
   1.1111111111111738E-003    -5.7305936934426427E-005
   1.1111111111111183E-002    -1.5286377674783580E-005
   2.1111111111111192E-002     5.1048471505055204E-005
   3.1111111111111200E-002     1.3781934103462845E-004
   4.1111111111111209E-002     2.3528680321760476E-004
   5.1111111111111218E-002     3.2743145129643381E-004
   6.1111111111111227E-002     3.9234594441950321E-004
   7.1111111111111125E-002     4.0350874769501388E-004
   8.1111111111111134E-002     3.3188814995810390E-004
   9.1111111111111143E-002     1.4870222366880625E-004
  0.10111111111111115         -1.7145795573014766E-004
  0.11111111111111116         -6.4752739854156971E-004
  0.12111111111111117         -1.2893271632492542E-003
  0.13111111111111118         -2.0958061795681715E-003
  0.14111111111111119         -3.0544872861355543E-003
  0.15111111111111120         -4.1422708891332150E-003
  0.16111111111111120         -5.3275190293788910E-003
  0.17111111111111121         -6.5731187351047993E-003
  0.18111111111111122         -7.8400559723377228E-003
  0.19111111111111123         -9.0909497812390327E-003
  0.20111111111111124         -1.0293019004166126E-002
  0.21111111111111125         -1.1420089751482010E-002
  0.22111111111111126         -1.2453405186533928E-002
  0.23111111111111127         -1.3381218537688255E-002
  0.24111111111111128         -1.4197316020727158E-002
  0.25111111111111128         -1.4898798428475857E-002
  0.26111111111111129         -1.5483547002077103E-002
  0.27111111111111108         -1.5947893261909485E-002
  0.28111111111111109         -1.6284979879856110E-002
  0.29111111111111110         -1.6484171152114868E-002
  0.30111111111111111         -1.6531664878129959E-002
  0.31111111111111112         -1.6412179917097092E-002
  0.32111111111111112         -1.6111340373754501E-002
  0.33111111111111113         -1.5618184581398964E-002
  0.34111111111111114         -1.4927219599485397E-002
  0.35111111111111115         -1.4039568603038788E-002
  0.36111111111111116         -1.2963005341589451E-002
  0.37111111111111117         -1.1710920371115208E-002
  0.38111111111111118         -1.0300507768988609E-002
  0.39111111111111119         -8.7505877017974854E-003
  0.40111111111111120         -7.0795211941003799E-003
  0.41111111111111120         -5.3036469034850597E-003
  0.42111111111111121         -3.4365812316536903E-003
  0.43111111111111122         -1.4896023785695434E-003
  0.44111111111111123          5.2685796981677413E-004
  0.45111111111111124          2.6008232962340117E-003
  0.46111111111111125          4.7159506939351559E-003
  0.47111111111111126          6.8489485420286655E-003
  0.48111111111111127          8.9679677039384842E-003
  0.49111111111111128          1.1032549664378166E-002
  0.50111111111111128          1.2995390221476555E-002
  0.51111111111111129          1.4805745333433151E-002
  0.52111111111111108          1.6413904726505280E-002
  0.53111111111111109          1.7775924876332283E-002
  0.54111111111111110          1.8857816234230995E-002
  0.55111111111111111          1.9638506695628166E-002
  0.56111111111111112          2.0111223682761192E-002
  0.57111111111111112          2.0283175632357597E-002
  0.58111111111111113          2.0173665136098862E-002
  0.59111111111111114          1.9810931757092476E-002
  0.60111111111111115          1.9228229299187660E-002
  0.61111111111111116          1.8459741026163101E-002
  0.62111111111111117          1.7537085339426994E-002
  0.63111111111111118          1.6487129032611847E-002
  0.64111111111111119          1.5331560745835304E-002
  0.65111111111111120          1.4088293537497520E-002
  0.66111111111111120          1.2774225324392319E-002
  0.67111111111111121          1.1408492922782898E-002
  0.68111111111111122          1.0015184059739113E-002
  0.69111111111111123          8.6246551945805550E-003
  0.70111111111111124          7.2730174288153648E-003
  0.71111111111111125          5.9998454526066780E-003
  0.72111111111111126          4.8445854336023331E-003
  0.73111111111111127          3.8423130754381418E-003
  0.74111111111111128          3.0195221770554781E-003
  0.75111111111111128          2.3905299603939056E-003
  0.76111111111111129          1.9550144206732512E-003
  0.77111111111111130          1.6971474979072809E-003
  0.78111111111111109          1.5866907779127359E-003
  0.79111111111111110          1.5821937704458833E-003
  0.80111111111111111          1.6360277077183127E-003
  0.81111111111111112          1.7004895489662886E-003
  0.82111111111111112          1.7338221659883857E-003
  0.83111111111111113          1.7049147281795740E-003
  0.84111111111111114          1.5957603463903069E-003
  0.85111111111111115          1.4013714389875531E-003
  0.86111111111111116          1.1275429278612137E-003
  0.87111111111111117          7.8733637928962708E-004
  0.88111111111111118          3.9727549301460385E-004
  0.89111111111111119         -2.5968402042053640E-005
  0.90111111111111120         -4.6799200936220586E-004
  0.91111111111111120         -9.1806083219125867E-004
  0.92111111111111121         -1.3694970402866602E-003
  0.93111111111111122         -1.8190437695011497E-003
  0.94111111111111123         -2.2652116604149342E-003
  0.95111111111111124         -2.7058015111833811E-003
  0.96111111111111125         -3.1351440120488405E-003
  0.97111111111111126         -3.5419270861893892E-003
  0.98111111111111127         -3.9085480384528637E-003
  0.99111111111111128         -4.2125806212425232E-003
   1.0011111111111113         -4.4302563183009624E-003
   1.0111111111111113         -4.5411083847284317E-003
   1.0211111111111113         -4.5324554666876793E-003
   1.0311111111111111         -4.4024684466421604E-003
   1.0411111111111111         -4.1610943153500557E-003
   1.0511111111111111         -3.8288605865091085E-003
   1.0611111111111111         -3.4341565333306789E-003
   1.0711111111111111         -3.0097770504653454E-003
   1.0811111111111111         -2.5893235579133034E-003
   1.0911111111111111         -2.2037334274500608E-003
   1.1011111111111112         -1.8780484097078443E-003
   1.1111111111111112         -1.6286588506773114E-003
   1.1211111111111114         -1.4615425607189536E-003
   1.1311111111111112         -1.3721722643822432E-003
   1.1411111111111114         -1.3475309824571013E-003
   1.1511111111111112         -1.3700332492589951E-003
   1.1611111111111110         -1.4223710168153048E-003
   1.1711111111111112         -1.4918198576197028E-003
   1.1811111111111110         -1.5726534184068441E-003
   1.1911111111111112         -1.6660453984513879E-003
   1.2011111111111110         -1.7778296023607254E-003
   1.2111111111111112         -1.9152484601363540E-003
   1.2211111111111110         -2.0839858334511518E-003
   1.2311111111111113         -2.2863172926008701E-003
   1.2411111111111111         -2.5204727426171303E-003
   1.2511111111111113         -2.7807501610368490E-003
   1.2611111111111111         -3.0578556470572948E-003
   1.2711111111111113         -3.3393360208719969E-003
   1.2811111111111111         -3.6104468163102865E-003
   1.2911111111111113         -3.8559418171644211E-003
   1.3011111111111111         -4.0628728456795216E-003
   1.3111111111111113         -4.2237797752022743E-003
   1.3211111111111111         -4.3390514329075813E-003
   1.3311111111111114         -4.4172606430947781E-003
   1.3411111111111111         -4.4729812070727348E-003
   1.3511111111111114         -4.5227063819766045E-003
   1.3611111111111112         -4.5803608372807503E-003
   1.3711111111111114         -4.6540698967874050E-003
   1.3811111111111112         -4.7451714053750038E-003
   1.3911111111111114         -4.8493505455553532E-003
   1.4011111111111112         -4.9588624387979507E-003
   1.4111111111111114         -5.0645829178392887E-003
   1.4211111111111112         -5.1571908406913280E-003
   1.4311111111111110         -5.2276547066867352E-003
   1.4411111111111112         -5.2678007632493973E-003
   1.4511111111111110         -5.2716303616762161E-003
   1.4611111111111112         -5.2373120561242104E-003
   1.4711111111111110         -5.1689166575670242E-003
   1.4811111111111113         -5.0766458734869957E-003
   1.4911111111111111         -4.9748099409043789E-003
   1.5011111111111113         -4.8779584467411041E-003
   1.5111111111111111         -4.7966465353965759E-003
   1.5211111111111113         -4.7346716746687889E-003
   1.5311111111111111         -4.6889628283679485E-003
   1.5411111111111113         -4.6519697643816471E-003
   1.5511111111111111         -4.6151909045875072E-003
   1.5611111111111113         -4.5720618218183517E-003
   1.5711111111111111         -4.5190509408712387E-003
   1.5811111111111114         -4.4550495222210884E-003
   1.5911111111111111         -4.3801758438348770E-003
   1.6011111111111114         -4.2953100055456161E-003
   1.6111111111111112         -4.2028981260955334E-003
   1.6211111111111114         -4.1083879768848419E-003
   1.6311111111111112         -4.0208785794675350E-003
   1.6411111111111114         -3.9517986588180065E-003
   1.6511111111111112         -3.9115678519010544E-003
   1.6611111111111114         -3.9055652450770140E-003
   1.6711111111111112         -3.9314329624176025E-003
   1.6811111111111110         -3.9792596362531185E-003
   1.6911111111111112         -4.0347366593778133E-003
   1.7011111111111110         -4.0838066488504410E-003
   1.7111111111111112         -4.1165887378156185E-003
   1.7211111111111110         -4.1288826614618301E-003
   1.7311111111111113         -4.1210511699318886E-003
   1.7411111111111111         -4.0955627337098122E-003
   1.7511111111111113         -4.0550767444074154E-003
   1.7611111111111111         -4.0022651664912701E-003
   1.7711111111111113         -3.9411298930644989E-003
   1.7811111111111111         -3.8783145137131214E-003
   1.7911111111111113         -3.8227420300245285E-003
   1.8011111111111111         -3.7829668726772070E-003
   1.8111111111111113         -3.7632661405950785E-003
   1.8211111111111111         -3.7606216501444578E-003
   1.8311111111111114         -3.7645664997398853E-003
   1.8411111111111111         -3.7604072131216526E-003
   1.8511111111111114         -3.7344298325479031E-003
   1.8611111111111112         -3.6785285919904709E-003
   1.8711111111111114         -3.5920098889619112E-003
   1.8811111111111112         -3.4799503628164530E-003
   1.8911111111111114         -3.3494464587420225E-003
   1.9011111111111112         -3.2061659730970860E-003
   1.9111111111111114         -3.0531582888215780E-003
   1.9211111111111112         -2.8922243509441614E-003
   1.9311111111111110         -2.7263674419373274E-003
   1.9411111111111112         -2.5611252058297396E-003
   1.9511111111111110         -2.4034022353589535E-003
   1.9611111111111112         -2.2582372184842825E-003
   1.9711111111111110         -2.1255689207464457E-003
   1.9811111111111113         -1.9993653986603022E-003
   1.9911111111111111         -1.8702038796618581E-003
   2.0011111111111113         -1.7302588094025850E-003
   2.0111111111111111         -1.5780422836542130E-003
   2.0211111111111113         -1.4201889280229807E-003
   2.0311111111111111         -1.2691925512626767E-003
   2.0411111111111113         -1.1383236851543188E-003
   2.0511111111111111         -1.0365522466599941E-003
   2.0611111111111113         -9.6617639064788818E-004
   2.0711111111111111         -9.2410127399489284E-004
   2.0811111111111114         -9.0543535770848393E-004
   2.0911111111111111         -9.0672745136544108E-004
   2.1011111111111114         -9.2660775408148766E-004
   2.1111111111111112         -9.6351699903607368E-004
   2.1211111111111114         -1.0123462416231632E-003
   2.1311111111111112         -1.0627347510308027E-003
   2.1411111111111114         -1.1008376022800803E-003
   2.1511111111111112         -1.1141309514641762E-003
   2.1611111111111114         -1.0967068374156952E-003
   2.1711111111111112         -1.0519236093387008E-003
   2.1811111111111114         -9.9066004622727633E-004
   2.1911111111111112         -9.2597329057753086E-004
   2.2011111111111110         -8.6709333118051291E-004
   2.2111111111111112         -8.1605924060568213E-004
   2.2211111111111110         -7.6865870505571365E-004
   2.2311111111111113         -7.1869872044771910E-004
   2.2411111111111111         -6.6267221700400114E-004
   2.2511111111111113         -6.0182518791407347E-004
   2.2611111111111111         -5.4049532627686858E-004
   2.2711111111111113         -4.8216353752650321E-004
   2.2811111111111111         -4.2624748311936855E-004
   2.2911111111111113         -3.6821744288317859E-004
   2.3011111111111111         -3.0338540091179311E-004
   2.3111111111111113         -2.3214622342493385E-004
   2.3211111111111111         -1.6322305600624532E-004
   2.3311111111111114         -1.1245135829085484E-004
   2.3411111111111111         -9.7270625701639801E-005
   2.3511111111111114         -1.2974887795280665E-004
   2.3611111111111112         -2.1195434965193272E-004
   2.3711111111111114         -3.3615430584177375E-004
   2.3811111111111112         -4.8947258619591594E-004
   2.3911111111111114         -6.6004821565002203E-004
   2.4011111111111112         -8.4102706750854850E-004
   2.4111111111111114         -1.0303135495632887E-003
   2.4211111111111112         -1.2268610298633575E-003
   2.4311111111111114         -1.4265435747802258E-003
   2.4411111111111112         -1.6208516899496317E-003
   2.4511111111111110         -1.7996657406911254E-003
   2.4611111111111112         -1.9564735703170300E-003
   2.4711111111111110         -2.0925258286297321E-003
   2.4811111111111113         -2.2168308496475220E-003
   2.4911111111111111         -2.3413978051394224E-003
   2.5011111111111113         -2.4741780944168568E-003
   2.5111111111111111         -2.6137691456824541E-003
   2.5211111111111113         -2.7490742504596710E-003
   2.5311111111111111         -2.8642180841416121E-003
   2.5411111111111113         -2.9458990320563316E-003
   2.5511111111111111         -2.9889596626162529E-003
   2.5611111111111113         -2.9971494805067778E-003
   2.5711111111111111         -2.9790664557367563E-003
   2.5811111111111114         -2.9422130901366472E-003
   2.5911111111111111         -2.8890878893435001E-003
   2.6011111111111114         -2.8176915366202593E-003
   2.6111111111111112         -2.7257704641669989E-003
   2.6211111111111114         -2.6155572850257158E-003
   2.6311111111111112         -2.4953957181423903E-003
   2.6411111111111114         -2.3767056409269571E-003
   2.6511111111111112         -2.2679402027279139E-003
   2.6611111111111114         -2.1693967282772064E-003
   2.6711111111111112         -2.0724937785416842E-003
   2.6811111111111114         -1.9644822459667921E-003
   2.6911111111111112         -1.8361640395596623E-003
   2.7011111111111110         -1.6881919000297785E-003
   2.7111111111111112         -1.5322264516726136E-003
   2.7211111111111110         -1.3862396590411663E-003
   2.7311111111111113         -1.2667130213230848E-003
   2.7411111111111111         -1.1822365922853351E-003
   2.7511111111111113         -1.1319847544655204E-003
   2.7611111111111111         -1.1094108922407031E-003
   2.7711111111111113         -1.1082736309617758E-003
   2.7811111111111111         -1.1268268572166562E-003
   2.7911111111111113         -1.1674626730382442E-003
   2.8011111111111111         -1.2323001865297556E-003
   2.8111111111111113         -1.3180553214624524E-003
   2.8211111111111111         -1.4141278807073832E-003
   2.8311111111111114         -1.5057786367833614E-003
   2.8411111111111111         -1.5808677999302745E-003
   2.8511111111111114         -1.6360918525606394E-003
   2.8611111111111112         -1.6786828637123108E-003
   2.8711111111111114         -1.7221802845597267E-003
   2.8811111111111112         -1.7785163363441825E-003
   2.8911111111111114         -1.8509832443669438E-003
   2.9011111111111112         -1.9321789732202888E-003
   2.9111111111111114         -2.0080213434994221E-003
   2.9211111111111112         -2.0652629900723696E-003
   2.9311111111111114         -2.0979049149900675E-003
   2.9411111111111112         -2.1087662316858768E-003
   2.9511111111111110         -2.1056267432868481E-003
   2.9611111111111112         -2.0948033779859543E-003
   2.9711111111111110         -2.0765394438058138E-003
   2.9811111111111113         -2.0452423486858606E-003
   2.9911111111111111         -1.9943059887737036E-003
   3.0011111111111113         -1.9221451366320252E-003
   3.0111111111111111         -1.8352039624005556E-003
   3.0211111111111113         -1.7456316854804754E-003
   3.0311111111111111         -1.6648283926770091E-003
   3.0411111111111113         -1.5968674561008811E-003
   3.0511111111111111         -1.5360600082203746E-003
   3.0611111111111113         -1.4704320346936584E-003
   3.0711111111111111         -1.3891933485865593E-003
   3.0811111111111114         -1.2897278647869825E-003
   3.0911111111111111         -1.1798730120062828E-003
   3.1011111111111114         -1.0741393780335784E-003
   3.1111111111111112         -9.8624557722359896E-004
   3.1211111111111109         -9.2255370691418648E-004
   3.1311111111111116         -8.8031141785904765E-004
   3.1411111111111114         -8.5148942889645696E-004
   3.1511111111111112         -8.2945101894438267E-004
   3.1611111111111110         -8.1396941095590591E-004
   3.1711111111111117         -8.1129610771313310E-004
   3.1811111111111114         -8.2928751362487674E-004
   3.1911111111111112         -8.7087426800280809E-004
   3.2011111111111110         -9.3028950504958630E-004
   3.2111111111111108         -9.9472724832594395E-004
   3.2211111111111115         -1.0506061371415854E-003
   3.2311111111111113         -1.0906105162575841E-003
   3.2411111111111111         -1.1171236401423812E-003
   3.2511111111111108         -1.1399022769182920E-003
   3.2611111111111115         -1.1694702552631497E-003
   3.2711111111111113         -1.2103895423933864E-003
   3.2811111111111111         -1.2586070224642754E-003
   3.2911111111111109         -1.3044426450505853E-003
   3.3011111111111116         -1.3391717802733183E-003
   3.3111111111111113         -1.3608725275844336E-003
   3.3211111111111111         -1.3757138513028622E-003
   3.3311111111111109         -1.3938174815848470E-003
   3.3411111111111116         -1.4223415637388825E-003
   3.3511111111111114         -1.4602522132918239E-003
   3.3611111111111112         -1.4982072170823812E-003
   3.3711111111111109         -1.5237432671710849E-003
   3.3811111111111116         -1.5285962726920843E-003
   3.3911111111111114         -1.5136300353333354E-003
   3.4011111111111112         -1.4883514959365129E-003
   3.4111111111111110         -1.4653812395408750E-003
   3.4211111111111117         -1.4533541398122907E-003
   3.4311111111111114         -1.4525982551276684E-003
   3.4411111111111112         -1.4560485724359751E-003
   3.4511111111111110         -1.4544553123414516E-003
   3.4611111111111117         -1.4422388048842549E-003
   3.4711111111111115         -1.4200552832335234E-003
   3.4811111111111113         -1.3924209633842111E-003
   3.4911111111111111         -1.3621012913063169E-003
   3.5011111111111108         -1.3252049684524536E-003
   3.5111111111111115         -1.2705727713182569E-003
   3.5211111111111113         -1.1843274114653468E-003
   3.5311111111111111         -1.0570869781076908E-003
   3.5411111111111109         -8.8950688950717449E-004
   3.5511111111111116         -6.9268950028344989E-004
   3.5611111111111113         -4.8305772361345589E-004
   3.5711111111111111         -2.7461745776236057E-004
   3.5811111111111109         -7.3048817284870893E-005
   3.5911111111111116          1.2514329864643514E-004
   3.6011111111111114          3.2832988654263318E-004
   3.6111111111111112          5.4329144768416882E-004
   3.6211111111111109          7.7065645018592477E-004
   3.6311111111111116          1.0048127733170986E-003
   3.6411111111111114          1.2378025567159057E-003
   3.6511111111111112          1.4641184825450182E-003
   3.6611111111111110          1.6828529769554734E-003
   3.6711111111111117          1.8955812556669116E-003
   3.6811111111111114          2.1013861987739801E-003
   3.6911111111111112          2.2925462108105421E-003
   3.7011111111111110          2.4542051833122969E-003
   3.7111111111111117          2.5689150206744671E-003
   3.7211111111111115          2.6238239370286465E-003
   3.7311111111111113          2.6164639275521040E-003
   3.7411111111111111          2.5557605549693108E-003
   3.7511111111111108          2.4576252326369286E-003
   3.7611111111111115          2.3376275785267353E-003
   3.7711111111111113          2.2048274986445904E-003
   3.7811111111111111          2.0599518902599812E-003
   3.7911111111111109          1.8983486806973815E-003
   3.8011111111111116          1.7152968794107437E-003
   3.8111111111111113          1.5100882155820727E-003
   3.8211111111111111          1.2864492600783706E-003
   3.8311111111111109          1.0495183523744345E-003
   3.8411111111111116          8.0195663031190634E-004
   3.8511111111111114          5.4230686509981751E-004
   3.8611111111111112          2.6710974634625018E-004
   3.8711111111111109         -2.4377994122914970E-005
   3.8811111111111116         -3.2597564859315753E-004
   3.8911111111111114         -6.2393012922257185E-004
   3.9011111111111112         -9.0079713845625520E-004
   3.9111111111111110         -1.1420273222029209E-003
   3.9211111111111117         -1.3416910078376532E-003
   3.9311111111111114         -1.5041875885799527E-003
   3.9411111111111112         -1.6411008546128869E-003
   3.9511111111111110         -1.7651325324550271E-003
   3.9611111111111117         -1.8845791928470135E-003
   3.9711111111111115         -2.0012157037854195E-003
   3.9811111111111113         -2.1121713798493147E-003
   3.9911111111111111         -2.2139241918921471E-003
   4.0011111111111113         -2.3054331541061401E-003
   4.0111111111111111         -2.3883143439888954E-003
   4.0211111111111109         -2.4641805794090033E-003
   4.0311111111111106         -2.5313058868050575E-003
   4.0411111111111104         -2.5833055842667818E-003
   4.0511111111111120         -2.6112038176506758E-003
   4.0611111111111118         -2.6079716626554728E-003
   4.0711111111111116         -2.5728677865117788E-003
   4.0811111111111114         -2.5128414854407310E-003
   4.0911111111111111         -2.4399471003562212E-003
   4.1011111111111109         -2.3660908918827772E-003
   4.1111111111111107         -2.2980286739766598E-003
   4.1211111111111105         -2.2353297099471092E-003
   4.1311111111111121         -2.1722149103879929E-003
   4.1411111111111119         -2.1018900442868471E-003
   4.1511111111111116         -2.0206507761031389E-003
   4.1611111111111114         -1.9294345984235406E-003
   4.1711111111111112         -1.8322805408388376E-003
   4.1811111111111110         -1.7331575509160757E-003
   4.1911111111111108         -1.6335530672222376E-003
   4.2011111111111106         -1.5325250569730997E-003
   4.2111111111111121         -1.4291289262473583E-003
   4.2211111111111119         -1.3254347722977400E-003
   4.2311111111111117         -1.2278732610866427E-003
   4.2411111111111115         -1.1456795036792755E-003
   4.2511111111111113         -1.0870759142562747E-003
   4.2611111111111111         -1.0553239844739437E-003
   4.2711111111111109         -1.0469354456290603E-003
   4.2811111111111106         -1.0530687868595123E-003
   4.2911111111111104         -1.0632560588419437E-003
   4.3011111111111120         -1.0692997602745891E-003
   4.3111111111111118         -1.0672287316992879E-003
   4.3211111111111116         -1.0565355187281966E-003
   4.3311111111111114         -1.0376462014392018E-003
   4.3411111111111111         -1.0095956968143582E-003
   4.3511111111111109         -9.6959026996046305E-004
   4.3611111111111107         -9.1476767556741834E-004
   4.3711111111111105         -8.4494618931785226E-004
   4.3811111111111121         -7.6445675222203135E-004
   4.3911111111111119         -6.8171636667102575E-004
   4.4011111111111116         -6.0662353644147515E-004
   4.4111111111111114         -5.4721283959224820E-004
   4.4211111111111112         -5.0743733299896121E-004
   4.4311111111111110         -4.8720595077611506E-004
   4.4411111111111108         -4.8439722741022706E-004
   4.4511111111111106         -4.9740629037842155E-004
   4.4611111111111121         -5.2658159984275699E-004
   4.4711111111111119         -5.7375011965632439E-004
   4.4811111111111117         -6.4032658701762557E-004
   4.4911111111111115         -7.2540651308372617E-004
   4.5011111111111113         -8.2518451381474733E-004
   4.5111111111111111         -9.3409977853298187E-004
   4.5211111111111109         -1.0469269473105669E-003
   4.5311111111111106         -1.1603911407291889E-003
   4.5411111111111104         -1.2731894385069609E-003
   4.5511111111111120         -1.3843441847711802E-003