 -0.88888888888888884          0.0000000000000000     
 -0.87888888888888883          0.0000000000000000     
 -0.86888888888888882          9.5943699681433850E-038
 -0.85888888888888881          7.2991675192416991E-033
 -0.84888888888888880          1.1805769062765989E-030
 -0.83888888888888880          2.5565822046903985E-028
 -0.82888888888888879          1.1148996595763826E-027
 -0.81888888888888878          2.3636959392693934E-027
 -0.80888888888888888          1.0392747077105134E-026
 -0.79888888888888887          6.6985063735000827E-026
 -0.78888888888888886          2.7118501240650035E-025
 -0.77888888888888885          6.5865739135821418E-025
 -0.76888888888888884          7.8468216109463638E-025
 -0.75888888888888884         -7.3748402148958432E-025
 -0.74888888888888883         -5.5865129545357321E-024
 -0.73888888888888882         -1.2377521059174417E-023
 -0.72888888888888881         -1.1122411015670674E-023
 -0.71888888888888880          1.8150335743822122E-023
 -0.70888888888888890          9.0433442763613593E-023
 -0.69888888888888889          1.7681676004385216E-022
 -0.68888888888888888          1.5979405047694554E-022
 -0.67888888888888888         -1.5699051455043696E-022
 -0.66888888888888887         -9.0285915676917677E-022
 -0.65888888888888886         -1.8363787242169762E-021
 -0.64888888888888885         -2.0395642518013335E-021
 -0.63888888888888884          5.2591415953258013E-024
 -0.62888888888888883          5.5009223257138267E-021
 -0.61888888888888882          1.3492593720162790E-020
 -0.60888888888888881          1.8913054959847362E-020
 -0.59888888888888880          1.2431959958968710E-020
 -0.58888888888888880         -1.5590821354434508E-020
 -0.57888888888888879         -6.6187018272143899E-020
 -0.56888888888888878         -1.2074687566151273E-019
 -0.55888888888888877         -1.3550642735235833E-019
 -0.54888888888888876         -5.1876338079404762E-020
 -0.53888888888888875          1.7054811162088032E-019
 -0.52888888888888885          5.0345360536183794E-019
 -0.51888888888888884          8.0494589429002572E-019
 -0.50888888888888884          8.1877102915671903E-019
 -0.49888888888888883          2.5532661515856732E-019
 -0.48888888888888882         -1.0353952076224256E-018
 -0.47888888888888881         -2.8431641083616466E-018
 -0.46888888888888886         -4.4369872931573961E-018
 -0.45888888888888885         -4.6111559613947239E-018
 -0.44888888888888884         -2.0588744649307185E-018
 -0.43888888888888883          3.9188012391944707E-018
 -0.42888888888888882          1.2549090898592979E-017
 -0.41888888888888881          2.0951153155181981E-017
 -0.40888888888888886          2.4225863592967136E-017
 -0.39888888888888885          1.6693426240522483E-017
 -0.38888888888888884         -5.6349942150888649E-018
 -0.37888888888888883         -4.1834633010089773E-017
 -0.36888888888888882         -8.3233606535160117E-017
 -0.35888888888888881         -1.1259488530354227E-016
 -0.34888888888888880         -1.0694009334767256E-016
 -0.33888888888888880         -4.4890324219644363E-017
 -0.32888888888888879          8.2179798287102261E-017
 -0.31888888888888878          2.5803498191430733E-016
 -0.30888888888888888          4.3346834313377975E-016
 -0.29888888888888887          5.2818264085346955E-016
 -0.28888888888888886          4.4761916671818571E-016
 -0.27888888888888885          1.1589262279521967E-016
 -0.26888888888888884         -4.8034973740995355E-016
 -0.25888888888888884         -1.2497599501031594E-015
 -0.24888888888888883         -1.9743154271953953E-015
 -0.23888888888888882         -2.3271946469774572E-015
 -0.22888888888888881         -1.9439476019704341E-015
 -0.21888888888888880         -5.4606980617755304E-016
 -0.20888888888888879          1.9043115422366164E-015
 -0.19888888888888878          5.0613801547811331E-015
 -0.18888888888888877          8.1223107395705235E-015
 -0.17888888888888888          9.8835480408622847E-015
 -0.16888888888888887          8.9688456314518383E-015
 -0.15888888888888886          4.2320243616195564E-015
 -0.14888888888888885         -4.7198878106672476E-015
 -0.13888888888888884         -1.7002824387150894E-014
 -0.12888888888888883         -3.0107460849502360E-014
 -0.11888888888888882         -3.9928665571380834E-014
 -0.10888888888888881         -4.1346293793223521E-014
  -9.8888888888888804E-002    -2.9431372703531133E-014
  -8.8888888888888795E-002    -1.1793410190002259E-015
  -7.8888888888888786E-002     4.2549385510185639E-014
  -6.8888888888888777E-002     9.5419264395206482E-014
  -5.8888888888888768E-002     1.4501545580677955E-013
  -4.8888888888888871E-002     1.7389666367041007E-013
  -3.8888888888888862E-002     1.6270737198970792E-013
  -2.8888888888888853E-002     9.5270301792970552E-014
  -1.8888888888888844E-002    -3.5068637853656257E-014
  -8.8888888888888351E-003    -2.1924065481907645E-013
   1.1111111111111738E-003    -4.2828715292146657E-013
   1.1111111111111183E-002    -6.1321206359238323E-013
   2.1111111111111192E-002    -7.1039593478594565E-013
   3.1111111111111200E-002    -6.5309454892747976E-013
   4.1111111111111209E-002    -3.8808070797723138E-013
   5.1111111111111218E-002     1.0513269264487632E-013
   6.1111111111111227E-002     7.9643746025287454E-013
   7.1111111111111125E-002     1.5933445968868698E-012
   8.1111111111111134E-002     2.3398067337809803E-012
   9.1111111111111143E-002     2.8290223896138000E-012
  0.10111111111111115          2.8315819741026038E-012
  0.11111111111111116          2.1377836566943698E-012
  0.12111111111111117          6.1030054707839065E-013
  0.13111111111111118         -1.7590879924575531E-012
  0.14111111111111119         -4.7971557282089350E-012
  0.15111111111111120         -8.1116346278831131E-012
  0.16111111111111120         -1.1080395281859445E-011
  0.17111111111111121         -1.2880607171139591E-011
  0.18111111111111122         -1.2570928673016901E-011
  0.19111111111111123         -9.2367762744016702E-012
  0.20111111111111124         -2.2009696582642180E-012
  0.21111111111111125          8.7120501784943016E-012
  0.22111111111111126          2.2890975573397476E-011
  0.23111111111111127          3.8689013798220984E-011
  0.24111111111111128          5.3293543189614212E-011
  0.25111111111111128          6.2809854539658261E-011
  0.26111111111111129          6.2648781995466862E-011
  0.27111111111111108          4.8272566499640845E-011
  0.28111111111111109          1.6284055701087929E-011
  0.29111111111111110         -3.4254883651829715E-011
  0.30111111111111111         -1.0050335563782653E-010
  0.31111111111111112         -1.7484932945954768E-010
  0.32111111111111112         -2.4463139847163973E-010
  0.33111111111111113         -2.9293745207326083E-010
  0.34111111111111114         -3.0071772849638023E-010
  0.35111111111111115         -2.5021767990907051E-010
  0.36111111111111116         -1.2942044658181828E-010
  0.37111111111111117          6.3155251861513051E-011
  0.38111111111111118          3.1425170798904389E-010
  0.39111111111111119          5.9337484925592321E-010
  0.40111111111111120          8.5306289809850000E-010
  0.41111111111111120          1.0326747235112066E-009
  0.42111111111111121          1.0658961491216701E-009
  0.43111111111111122          8.9143747938891238E-010
  0.44111111111111123          4.6559975319659941E-010
  0.45111111111111124         -2.2526630560903982E-010
  0.46111111111111125         -1.1547849343429561E-009
  0.47111111111111126         -2.2514172748344663E-009
  0.48111111111111127         -3.3999962845143727E-009
  0.49111111111111128         -4.4507988405939614E-009
  0.50111111111111128         -5.2357185253981697E-009
  0.51111111111111129         -5.5894782136078902E-009
  0.52111111111111108         -5.3724868998017428E-009
  0.53111111111111109         -4.4904950868840388E-009
  0.54111111111111110         -2.9054820771534651E-009
  0.55111111111111111         -6.3157296059657142E-010
  0.56111111111111112          2.2902253427048436E-009
  0.57111111111111112          5.8449836082274942E-009
  0.58111111111111113          1.0131135042001915E-008
  0.59111111111111114          1.5488986093714630E-008
  0.60111111111111115          2.2678445787960300E-008
  0.61111111111111116          3.3116293707280420E-008
  0.62111111111111117          4.9185562289721929E-008
  0.63111111111111118          7.4634840530052315E-008
  0.64111111111111119          1.1509180097846183E-007
  0.65111111111111120          1.7872275748231914E-007
  0.66111111111111120          2.7708114203051082E-007
  0.67111111111111121          4.2620632711987128E-007
  0.68111111111111122          6.4804817156982608E-007
  0.69111111111111123          9.7232111784251174E-007
  0.70111111111111124          1.4389187299457262E-006
  0.71111111111111125          2.1010553155065281E-006
  0.72111111111111126          3.0293392683233833E-006
  0.73111111111111127          4.3170161916350480E-006
  0.74111111111111128          6.0866627791256178E-006
  0.75111111111111128          8.4986349975224584E-006
  0.76111111111111129          1.1761592759285122E-005
  0.77111111111111130          1.6145437257364392E-005
  0.78111111111111109          2.1997000658302568E-005
  0.79111111111111110          2.9758748496533372E-005
  0.80111111111111111          3.9990787627175450E-005
  0.81111111111111112          5.3396273870021105E-005
  0.82111111111111112          7.0850313932169229E-005
  0.83111111111111113          9.3432281573768705E-005
  0.84111111111111114          1.2246111873537302E-004
  0.85111111111111115          1.5953306865412742E-004
  0.86111111111111116          2.0656082779169083E-004
  0.87111111111111117          2.6581273414194584E-004
  0.88111111111111118          3.3995011472143233E-004
  0.89111111111111119          4.3206030386500061E-004
  0.90111111111111120          5.4568238556385040E-004
  0.91111111111111120          6.8482145434245467E-004
  0.92111111111111121          8.5394753841683269E-004
  0.93111111111111122          1.0579745285212994E-003
  0.94111111111111123          1.3022124767303467E-003
  0.95111111111111124          1.5922898892313242E-003
  0.96111111111111125          1.9340383587405086E-003
  0.97111111111111126          2.3333362769335508E-003
  0.98111111111111127          2.7959076687693596E-003
  0.99111111111111128          3.3270730637013912E-003
   1.0011111111111113          3.9314520545303822E-003
   1.0111111111111113          4.6126213856041431E-003
   1.0211111111111113          5.3727314807474613E-003
   1.0311111111111111          6.2120910733938217E-003
   1.0411111111111111          7.1287350729107857E-003
   1.0511111111111111          8.1179877743124962E-003
   1.0611111111111111          9.1720465570688248E-003
   1.0711111111111111          1.0279605165123940E-002
   1.0811111111111111          1.1425544507801533E-002
   1.0911111111111111          1.2590723112225533E-002
   1.1011111111111112          1.3751887716352940E-002
   1.1111111111111112          1.4881735667586327E-002
   1.1211111111111114          1.5949156135320663E-002
   1.1311111111111112          1.6919655725359917E-002
   1.1411111111111114          1.7755994573235512E-002
   1.1511111111111112          1.8419023603200912E-002
   1.1611111111111110          1.8868720158934593E-002
   1.1711111111111112          1.9065404310822487E-002
   1.1811111111111110          1.8971102312207222E-002
   1.1911111111111112          1.8551016226410866E-002
   1.2011111111111110          1.7775043845176697E-002
   1.2111111111111112          1.6619294881820679E-002
   1.2211111111111110          1.5067542903125286E-002
   1.2311111111111113          1.3112519867718220E-002
   1.2411111111111111          1.0757011361420155E-002
   1.2511111111111113          8.0146817490458488E-003
   1.2611111111111111          4.9105575308203697E-003
   1.2711111111111113          1.4811484143137932E-003
   1.2811111111111111         -2.2258467506617308E-003
   1.2911111111111113         -6.1522461473941803E-003
   1.3011111111111111         -1.0230509564280510E-002
   1.3111111111111113         -1.4385255053639412E-002
   1.3211111111111111         -1.8535118550062180E-002
   1.3311111111111114         -2.2594906389713287E-002
   1.3411111111111111         -2.6477968320250511E-002
   1.3511111111111114         -3.0098689720034599E-002
   1.3611111111111112         -3.3375032246112823E-002
   1.3711111111111114         -3.6231014877557755E-002
   1.3811111111111112         -3.8599047809839249E-002
   1.3911111111111114         -4.0422026067972183E-002
   1.4011111111111112         -4.1655119508504868E-002
   1.4111111111111114         -4.2267169803380966E-002
   1.4211111111111112         -4.2241681367158890E-002
   1.4311111111111110         -4.1577339172363281E-002
   1.4411111111111112         -4.0288075804710388E-002
   1.4511111111111110         -3.8402643054723740E-002
   1.4611111111111112         -3.5963758826255798E-002
   1.4711111111111110         -3.3026818186044693E-002
   1.4811111111111113         -2.9658256098628044E-002
   1.4911111111111111         -2.5933586061000824E-002
   1.5011111111111113         -2.1935211494565010E-002
   1.5111111111111111         -1.7750056460499763E-002
   1.5211111111111113         -1.3467119075357914E-002
   1.5311111111111111         -9.1750063002109528E-003
   1.5411111111111113         -4.9595325253903866E-003
   1.5511111111111111         -9.0146105503663421E-004
   1.5611111111111113          2.9255510307848454E-003
   1.5711111111111111          6.4567383378744125E-003
   1.5811111111111114          9.6377013251185417E-003
   1.5911111111111111          1.2425526976585388E-002
   1.6011111111111114          1.4789531938731670E-002
   1.6111111111111112          1.6711607575416565E-002
   1.6211111111111114          1.8186170607805252E-002
   1.6311111111111112          1.9219730049371719E-002
   1.6411111111111114          1.9830094650387764E-002
   1.6511111111111112          2.0045243203639984E-002
   1.6611111111111114          1.9901925697922707E-002
   1.6711111111111112          1.9444027915596962E-002
   1.6811111111111110          1.8720766529440880E-002
   1.6911111111111112          1.7784796655178070E-002
   1.7011111111111110          1.6690282151103020E-002
   1.7111111111111112          1.5491005964577198E-002
   1.7211111111111110          1.4238596893846989E-002
   1.7311111111111113          1.2980916537344456E-002
   1.7411111111111111          1.1760676279664040E-002
   1.7511111111111113          1.0614314116537571E-002
   1.7611111111111111          9.5711648464202881E-003
   1.7711111111111113          8.6529366672039032E-003
   1.7811111111111111          7.8734988346695900E-003
   1.7911111111111113          7.2389612905681133E-003
   1.8011111111111111          6.7480411380529404E-003
   1.8111111111111113          6.3926707953214645E-003
   1.8211111111111111          6.1588217504322529E-003
   1.8311111111111114          6.0275020077824593E-003
   1.8411111111111111          5.9758801944553852E-003
   1.8511111111111114          5.9784944169223309E-003
   1.8611111111111112          6.0084951110184193E-003
   1.8711111111111114          6.0388818383216858E-003
   1.8811111111111112          6.0436818748712540E-003
   1.8911111111111114          5.9990370646119118E-003
   1.9011111111111112          5.8841546997427940E-003
   1.9111111111111114          5.6820930913090706E-003
   1.9211111111111112          5.3803576156497002E-003
   1.9311111111111110          4.9712890759110451E-003
   1.9411111111111112          4.4522434473037720E-003
   1.9511111111111110          3.8255639374256134E-003
   1.9611111111111112          3.0983604956418276E-003
   1.9711111111111110          2.2821181919425726E-003
   1.9811111111111113          1.3921590289101005E-003
   1.9911111111111111          4.4698501005768776E-004
   2.0011111111111113         -5.3246895549818873E-004
   2.0111111111111111         -1.5236446633934975E-003
   2.0211111111111113         -2.5032062549144030E-003
   2.0311111111111111         -3.4478958696126938E-003
   2.0411111111111113         -4.3353745713829994E-003
   2.0511111111111111         -5.1450198516249657E-003
   2.0611111111111113         -5.8586574159562588E-003
   2.0711111111111111         -6.4611947163939476E-003
   2.0811111111111114         -6.9411294534802437E-003
   2.0911111111111111         -7.2909099981188774E-003
   2.1011111111111114         -7.5071211904287338E-003
   2.1111111111111112         -7.5904899276793003E-003
   2.1211111111111114         -7.5457016937434673E-003
   2.1311111111111112         -7.3810438625514507E-003
   2.1411111111111114         -7.1078925393521786E-003
   2.1511111111111112         -6.7400839179754257E-003
   2.1611111111111114         -6.2932041473686695E-003
   2.1711111111111112         -5.7838452048599720E-003
   2.1811111111111114         -5.2288677543401718E-003
   2.1911111111111112         -4.6447156928479671E-003
   2.2011111111111110         -4.0468079969286919E-003
   2.2111111111111112         -3.4490386024117470E-003
   2.2211111111111110         -2.8633938636630774E-003
   2.2311111111111113         -2.2997003979980946E-003
   2.2411111111111111         -1.7654994735494256E-003
   2.2511111111111113         -1.2660407228395343E-003
   2.2611111111111111         -8.0438703298568726E-004
   2.2711111111111113         -3.8161239353939891E-004
   2.2811111111111111          2.9228892799437745E-006
   2.2911111111111113          3.5124164423905313E-004
   2.3011111111111111          6.6638493444770575E-004
   2.3111111111111113          9.5203635282814503E-004
   2.3211111111111111          1.2121570762246847E-003
   2.3311111111111114          1.4506517909467220E-003
   2.3411111111111111          1.6710790805518627E-003
   2.3511111111111114          1.8764151027426124E-003
   2.3611111111111112          2.0688732620328665E-003
   2.3711111111111114          2.2497761528939009E-003
   2.3811111111111112          2.4194738361984491E-003
   2.3911111111111114          2.5773060042411089E-003
   2.4011111111111112          2.7216023299843073E-003
   2.4111111111111114          2.8497260063886642E-003
   2.4211111111111112          2.9581673443317413E-003
   2.4311111111111114          3.0426981393247843E-003
   2.4411111111111112          3.0985944904386997E-003
   2.4511111111111110          3.1209357548505068E-003
   2.4611111111111112          3.1049735844135284E-003
   2.4711111111111110          3.0465542804449797E-003
   2.4811111111111113          2.9425653629004955E-003
   2.4911111111111111          2.7913656085729599E-003
   2.5011111111111113          2.5931503623723984E-003
   2.5111111111111111          2.3502062540501356E-003
   2.5211111111111113          2.0670178346335888E-003
   2.5311111111111111          1.7502057598903775E-003
   2.5411111111111113          1.4082961715757847E-003
   2.5511111111111111          1.0513424640521407E-003
   2.5611111111111113          6.9043936673551798E-004
   2.5711111111111111          3.3717881888151169E-004
   2.5811111111111114          3.0995420274848584E-006
   2.5911111111111111         -3.0082624289207160E-004
   2.6011111111111114         -5.6463968940079212E-004
   2.6111111111111112         -7.7976379543542862E-004
   2.6211111111111114         -9.3929847935214639E-004
   2.6311111111111112         -1.0382579639554024E-003
   2.6411111111111114         -1.0737698758020997E-003
   2.6511111111111112         -1.0452491696923971E-003
   2.6611111111111114         -9.5454812981188297E-004
   2.6711111111111112         -8.0606603296473622E-004
   2.6811111111111114         -6.0678768204525113E-004
   2.6911111111111112         -3.6620942410081625E-004
   2.7011111111111110         -9.6112700703088194E-005
   2.7111111111111112          1.8984382040798664E-004
   2.7211111111111110          4.7672030632384121E-004
   2.7311111111111113          7.4905832298099995E-004
   2.7411111111111111          9.9175958894193172E-004
   2.7511111111111113          1.1910072062164545E-003
   2.7611111111111111          1.3351424131542444E-003
   2.7711111111111113          1.4154121745377779E-003
   2.7811111111111111          1.4265151694417000E-003
   2.7911111111111113          1.3669014442712069E-003
   2.8011111111111111          1.2388100149109960E-003
   2.8111111111111113          1.0480592027306557E-003
   2.8211111111111111          8.0363004235550761E-004
   2.8311111111111114          5.1709631225094199E-004
   2.8411111111111111          2.0195652905385941E-004
   2.8511111111111114         -1.2708267604466528E-004
   2.8611111111111112         -4.5483896974474192E-004
   2.8711111111111114         -7.6638354221358895E-004
   2.8811111111111112         -1.0477598989382386E-003
   2.8911111111111114         -1.2866880279034376E-003
   2.9011111111111112         -1.4732417184859514E-003
   2.9111111111111114         -1.6004740027710795E-003
   2.9211111111111112         -1.6649451572448015E-003
   2.9311111111111114         -1.6670955810695887E-003
   2.9411111111111112         -1.6113974852487445E-003
   2.9511111111111110         -1.5062284655869007E-003
   2.9611111111111112         -1.3634312199428678E-003
   2.9711111111111110         -1.1975596426054835E-003
   2.9811111111111113         -1.0248536709696054E-003
   2.9911111111111111         -8.6202454986050725E-004
   3.0011111111111113         -7.2496681241318583E-004
   3.0111111111111111         -6.2752788653597236E-004
   3.0211111111111113         -5.8046152116730809E-004
   3.0311111111111111         -5.9066736139357090E-004
   3.0411111111111113         -6.6077930387109518E-004
   3.0511111111111111         -7.8911450691521168E-004
   3.0611111111111113         -9.6994987688958645E-004
   3.0711111111111111         -1.1940533295273781E-003
   3.0811111111111114         -1.4493779744952917E-003
   3.0911111111111111         -1.7218263819813728E-003
   3.1011111111111114         -1.9960110075771809E-003
   3.1111111111111112         -2.2559631615877151E-003
   3.1211111111111109         -2.4857791140675545E-003
   3.1311111111111116         -2.6702159084379673E-003
   3.1411111111111114         -2.7952641248703003E-003
   3.1511111111111112         -2.8487211093306541E-003
   3.1611111111111110         -2.8207695577293634E-003
   3.1711111111111117         -2.7045416645705700E-003
   3.1811111111111114         -2.4966120254248381E-003
   3.1911111111111112         -2.1973506081849337E-003
   3.2011111111111110         -1.8110565142706037E-003
   3.2111111111111108         -1.3458103640004992E-003
   3.2211111111111115         -8.1302149919793010E-004
   3.2311111111111113         -2.2669274767395109E-004
   3.2411111111111111          3.9751885924488306E-004
   3.2511111111111108          1.0433256393298507E-003
   3.2611111111111115          1.6947714611887932E-003
   3.2711111111111113          2.3369942791759968E-003
   3.2811111111111111          2.9566811863332987E-003
   3.2911111111111109          3.5421699285507202E-003
   3.3011111111111116          4.0832203812897205E-003
   3.3111111111111113          4.5705479569733143E-003
   3.3211111111111111          4.9952673725783825E-003
   3.3311111111111109          5.3484104573726654E-003
   3.3411111111111116          5.6206798180937767E-003
   3.3511111111111114          5.8025442995131016E-003
   3.3611111111111112          5.8847162872552872E-003
   3.3711111111111109          5.8589652180671692E-003
   3.3811111111111116          5.7191504165530205E-003
   3.3911111111111114          5.4623009636998177E-003
   3.4011111111111112          5.0895549356937408E-003
   3.4111111111111110          4.6067829243838787E-003
   3.4211111111111117          4.0247840806841850E-003
   3.4311111111111114          3.3590109087526798E-003
   3.4411111111111112          2.6288607623428106E-003
   3.4511111111111110          1.8566405633464456E-003
   3.4611111111111117          1.0663560824468732E-003
   3.4711111111111115          2.8248177841305733E-004
   3.4811111111111113         -4.7115527559071779E-004
   3.4911111111111111         -1.1722948402166367E-003
   3.5011111111111108         -1.8009436316788197E-003
   3.5111111111111115         -2.3398909252136946E-003
   3.5211111111111113         -2.7751098386943340E-003
   3.5311111111111111         -3.0961204320192337E-003
   3.5411111111111109         -3.2963736448436975E-003
   3.5511111111111116         -3.3736641053110361E-003
   3.5611111111111113         -3.3305287361145020E-003
   3.5711111111111111         -3.1745389569550753E-003
   3.5811111111111109         -2.9183595906943083E-003
   3.5911111111111116         -2.5794587563723326E-003
   3.6011111111111114         -2.1793795749545097E-003
   3.6111111111111112         -1.7425571568310261E-003
   3.6211111111111109         -1.2947379145771265E-003
   3.6311111111111116         -8.6114031728357077E-004
   3.6411111111111114         -4.6455342089757323E-004
   3.6511111111111112         -1.2359746324364096E-004
   3.6611111111111110          1.4864411787129939E-004
   3.6711111111111117          3.4546011011116207E-004
   3.6811111111111114          4.6673137694597244E-004
   3.6911111111111112          5.1853887271136045E-004
   3.7011111111111110          5.1224563503637910E-004
   3.7111111111111117          4.6319785178638995E-004
   3.7211111111111115          3.8921841769479215E-004
   3.7311111111111113          3.0906082247383893E-004
   3.7411111111111111          2.4095919798128307E-004
   3.7511111111111108          2.0136097737122327E-004
   3.7611111111111115          2.0387982658576220E-004
   3.7711111111111113          2.5846619973890483E-004
   3.7811111111111111          3.7077517481520772E-004
   3.7911111111111109          5.4171367082744837E-004
   3.8011111111111116          7.6717085903510451E-004
   3.8111111111111113          1.0379618033766747E-003
   3.8211111111111111          1.3400376774370670E-003
   3.8311111111111109          1.6550211003050208E-003
   3.8411111111111116          1.9611069001257420E-003
   3.8511111111111114          2.2343266755342484E-003
   3.8611111111111112          2.4501206353306770E-003
   3.8711111111111109          2.5850944221019745E-003
   3.8811111111111116          2.6187915354967117E-003
   3.8911111111111114          2.5352858938276768E-003
   3.9011111111111112          2.3244083859026432E-003
   3.9111111111111110          1.9824600312858820E-003
   3.9211111111111117          1.5123414341360331E-003
   3.9311111111111114          9.2311057960614562E-004
   3.9411111111111112          2.2906473896000534E-004
   3.9511111111111110         -5.5149052059277892E-004
   3.9611111111111117         -1.3975910842418671E-003
   3.9711111111111115         -2.2868937812745571E-003
   3.9811111111111113         -3.1967377290129662E-003
   3.9911111111111111         -4.1049085557460785E-003
   4.0011111111111113         -4.9901003949344158E-003
   4.0111111111111111         -5.8321459218859673E-003
   4.0211111111111109         -6.6121267154812813E-003
   4.0311111111111106         -7.3124975897371769E-003
   4.0411111111111104         -7.9173343256115913E-003
   4.0511111111111120         -8.4127672016620636E-003
   4.0611111111111118         -8.7876049801707268E-003
   4.0711111111111116         -9.0340813621878624E-003
   4.0811111111111114         -9.1486256569623947E-003
   4.0911111111111111         -9.1325137764215469E-003
   4.1011111111111109         -8.9922957122325897E-003
   4.1111111111111107         -8.7399045005440712E-003
   4.1211111111111105         -8.3924364298582077E-003
   4.1311111111111121         -7.9716239124536514E-003
   4.1411111111111119         -7.5031071901321411E-003
   4.1511111111111116         -7.0155952125787735E-003
   4.1611111111111114         -6.5400479361414909E-003
   4.1711111111111112         -6.1089452356100082E-003
   4.1811111111111110         -5.7556778192520142E-003
   4.1911111111111108         -5.5140252225100994E-003
   4.2011111111111106         -5.4176417179405689E-003
   4.2111111111111121         -5.4994383826851845E-003
   4.2211111111111119         -5.7907532900571823E-003
   4.2311111111111117         -6.3202371820807457E-003
   4.2411111111111115         -7.1124415844678879E-003
   4.2511111111111113         -8.1861689686775208E-003
   4.2611111111111111         -9.5527134835720062E-003
   4.2711111111111109         -1.1214178986847401E-002
   4.2811111111111106         -1.3162056915462017E-002
   4.2911111111111104         -1.5376253984868526E-002
   4.3011111111111120         -1.7824687063694000E-002
   4.3111111111111118         -2.0463487133383751E-002
   4.3211111111111116         -2.3237774148583412E-002
   4.3311111111111114         -2.6082903146743774E-002
   4.3411111111111111         -2.8926005586981773E-002
   4.3511111111111109         -3.1687702983617783E-002
   4.3611111111111107         -3.4283820539712906E-002
   4.3711111111111105         -3.6627084016799927E-002
   4.3811111111111121         -3.8628768175840378E-002
   4.3911111111111119         -4.0200397372245789E-002
   4.4011111111111116         -4.1255597025156021E-002
   4.4111111111111114         -4.1712224483489990E-002
   4.4211111111111112         -4.1494827717542648E-002
   4.4311111111111110         -4.0537450462579727E-002
   4.4411111111111108         -3.8786664605140686E-002
   4.4511111111111106         -3.6204621195793152E-002
   4.4611111111111121         -3.2771874219179153E-002
   4.4711111111111119         -2.8489658609032631E-002
   4.4811111111111117         -2.3381372913718224E-002
   4.4911111111111115         -1.7493074759840965E-002
   4.5011111111111113         -1.0892918333411217E-002
   4.5111111111111111         -3.6696069873869419E-003
   4.5211111111111109          4.0699895471334457E-003
   4.5311111111111106          1.2203780934214592E-002
   4.5411111111111104          2.0597707480192184E-002
   4.5511111111111120          2.9109038412570953E-002