 -0.88888888888888884         -1.7471172702232019E-031
 -0.87888888888888883         -1.1149508893129033E-027
 -0.86888888888888882         -6.5556352819174395E-024
 -0.85888888888888881         -5.0996657902706837E-023
 -0.84888888888888880         -1.8679741559493392E-021
 -0.83888888888888880         -9.0167476984132008E-021
 -0.82888888888888879         -2.0475591059024362E-020
 -0.81888888888888878         -2.4665579132270824E-020
 -0.80888888888888888         -1.3465262832618729E-020
 -0.79888888888888887         -1.9250358857248600E-020
 -0.78888888888888886         -1.3096190999168907E-019
 -0.77888888888888885         -4.2443541958890830E-019
 -0.76888888888888884         -8.1457050260859819E-019
 -0.75888888888888884         -9.7553173310165670E-019
 -0.74888888888888883         -5.2292998647470526E-019
 -0.73888888888888882          5.4480943066461568E-019
 -0.72888888888888881          1.5133159705226478E-018
 -0.71888888888888880          1.2574965108153637E-018
 -0.70888888888888890         -6.9410777641219449E-019
 -0.69888888888888889         -3.0819345484636002E-018
 -0.68888888888888888         -3.1260849000683118E-018
 -0.67888888888888888          1.3144325931483075E-018
 -0.66888888888888887          8.8169983857221396E-018
 -0.65888888888888886          1.3562697341700145E-017
 -0.64888888888888885          9.0187642807360741E-018
 -0.63888888888888884         -4.6621417199912675E-018
 -0.62888888888888883         -1.4514667248643535E-017
 -0.61888888888888882          3.3010768198102831E-018
 -0.60888888888888881          6.9324736588648368E-017
 -0.59888888888888880          1.7595273799992712E-016
 -0.58888888888888880          2.5933115408184322E-016
 -0.57888888888888879          1.8105100283967115E-016
 -0.56888888888888878         -2.5774963769020103E-016
 -0.55888888888888877         -1.2328393023114522E-015
 -0.54888888888888876         -2.7034396941260025E-015
 -0.53888888888888875         -4.1133690217528586E-015
 -0.52888888888888885         -4.1187133761335596E-015
 -0.51888888888888884         -6.5859522154453065E-016
 -0.50888888888888884          8.2076848843901790E-015
 -0.49888888888888883          2.2467149126369212E-014
 -0.48888888888888882          3.7750347552795160E-014
 -0.47888888888888881          4.3782306339418264E-014
 -0.46888888888888886          2.5876290720610109E-014
 -0.45888888888888885         -2.8688653557797095E-014
 -0.44888888888888884         -1.1970978407768035E-013
 -0.43888888888888883         -2.2251631418522544E-013
 -0.42888888888888882         -2.8342367515421518E-013
 -0.41888888888888881         -2.3056811451413473E-013
 -0.40888888888888886         -4.1234652309676562E-015
 -0.39888888888888885          3.9983435399376654E-013
 -0.38888888888888884          8.8934100968968144E-013
 -0.37888888888888883          1.2655483215204266E-012
 -0.36888888888888882          1.2627228906589294E-012
 -0.35888888888888881          6.4461549162744824E-013
 -0.34888888888888880         -6.6376629670114595E-013
 -0.33888888888888880         -2.4558200525243157E-012
 -0.32888888888888879         -4.1940461520395544E-012
 -0.31888888888888878         -5.0820155375608245E-012
 -0.30888888888888888         -4.2757659392267389E-012
 -0.29888888888888887         -1.2063389566788207E-012
 -0.28888888888888886          4.0622063005035791E-012
 -0.27888888888888885          1.0550811960219342E-011
 -0.26888888888888884          1.6286914525376339E-011
 -0.25888888888888884          1.8547227989551551E-011
 -0.24888888888888883          1.4496692041232606E-011
 -0.23888888888888882          2.2108168160756003E-012
 -0.22888888888888881         -1.8072186108719634E-011
 -0.21888888888888880         -4.2805887306984758E-011
 -0.20888888888888879         -6.4609699534923237E-011
 -0.19888888888888878         -7.2955592955725734E-011
 -0.18888888888888877         -5.6533149689341755E-011
 -0.17888888888888888         -7.3411207668350187E-012
 -0.16888888888888887          7.4146577766498467E-011
 -0.15888888888888886          1.7422714659875993E-010
 -0.14888888888888885          2.6379462503278717E-010
 -0.13888888888888884          3.0106570014787337E-010
 -0.12888888888888883          2.4082227878530205E-010
 -0.11888888888888882          5.0081574304305931E-011
 -0.10888888888888881         -2.7241794930965568E-010
  -9.8888888888888804E-002    -6.7829519778683789E-010
  -8.8888888888888795E-002    -1.0606535649770876E-009
  -7.8888888888888786E-002    -1.2621101941334700E-009
  -6.8888888888888777E-002    -1.1053057358267893E-009
  -5.8888888888888768E-002    -4.4614792416020066E-010
  -4.8888888888888871E-002     7.5781453334755611E-010
  -3.8888888888888862E-002     2.3803341520078902E-009
  -2.8888888888888853E-002     4.0843897153308717E-009
  -1.8888888888888844E-002     5.3312319003850916E-009
  -8.8888888888888351E-003     5.4615476585695433E-009
   1.1111111111111738E-003     3.8554688330805220E-009
   1.1111111111111183E-002     1.5561650579254405E-010
   2.1111111111111192E-002    -5.4895981094205126E-009
   3.1111111111111200E-002    -1.2229823376230797E-008
   4.1111111111111209E-002    -1.8445039273728980E-008
   5.1111111111111218E-002    -2.1882300416109501E-008
   6.1111111111111227E-002    -2.0043415815962362E-008
   7.1111111111111125E-002    -1.0816170181726648E-008
   8.1111111111111134E-002     6.7293037808724421E-009
   9.1111111111111143E-002     3.1530699828863362E-008
  0.10111111111111115          5.9918072281561763E-008
  0.11111111111111116          8.5417823925126868E-008
  0.12111111111111117          9.9162342337422160E-008
  0.13111111111111118          9.0988912404554867E-008
  0.14111111111111119          5.1152699853673766E-008
  0.15111111111111120         -2.7614605713210949E-008
  0.16111111111111120         -1.4815823590197397E-007
  0.17111111111111121         -3.0766207714805205E-007
  0.18111111111111122         -4.9776156174630160E-007
  0.19111111111111123         -7.0656733441865072E-007
  0.20111111111111124         -9.2295050535540213E-007
  0.21111111111111125         -1.1431129678385332E-006
  0.22111111111111126         -1.3791004676022567E-006
  0.23111111111111127         -1.6685630725987721E-006
  0.24111111111111128         -2.0848401618422940E-006
  0.25111111111111128         -2.7464336653792998E-006
  0.26111111111111129         -3.8251432670222130E-006
  0.27111111111111108         -5.5526884352730121E-006
  0.28111111111111109         -8.2263150034123100E-006
  0.29111111111111110         -1.2214763955853414E-005
  0.30111111111111111         -1.7966816812986508E-005
  0.31111111111111112         -2.6025301849585958E-005
  0.32111111111111112         -3.7049863749416545E-005
  0.33111111111111113         -5.1851788157364354E-005
  0.34111111111111114         -7.1443741035182029E-005
  0.35111111111111115         -9.7106640168931335E-005
  0.36111111111111116         -1.3047452375758439E-004
  0.37111111111111117         -1.7363746883347631E-004
  0.38111111111111118         -2.2926123347133398E-004
  0.39111111111111119         -3.0072103254497051E-004
  0.40111111111111120         -3.9224661304615438E-004
  0.41111111111111120         -5.0907413242384791E-004
  0.42111111111111121         -6.5760017605498433E-004
  0.43111111111111122         -8.4553315537050366E-004
  0.44111111111111123         -1.0820343159139156E-003
  0.45111111111111124         -1.3778423890471458E-003
  0.46111111111111125         -1.7453724285587668E-003
  0.47111111111111126         -2.1987780928611755E-003
  0.48111111111111127         -2.7539648581296206E-003
  0.49111111111111128         -3.4285397268831730E-003
  0.50111111111111128         -4.2416835203766823E-003
  0.51111111111111129         -5.2139242179691792E-003
  0.52111111111111108         -6.3668042421340942E-003
  0.53111111111111109         -7.7224145643413067E-003
  0.54111111111111110         -9.3027902767062187E-003
  0.55111111111111111         -1.1129152961075306E-002
  0.56111111111111112         -1.3220982626080513E-002
  0.57111111111111112         -1.5594942495226860E-002
  0.58111111111111113         -1.8263632431626320E-002
  0.59111111111111114         -2.1234203130006790E-002
  0.60111111111111115         -2.4506853893399239E-002
  0.61111111111111116         -2.8073230758309364E-002
  0.62111111111111117         -3.1914819031953812E-002
  0.63111111111111118         -3.6001350730657578E-002
  0.64111111111111119         -4.0289338678121567E-002
  0.65111111111111120         -4.4720839709043503E-002
  0.66111111111111120         -4.9222528934478760E-002
  0.67111111111111121         -5.3705219179391861E-002
  0.68111111111111122         -5.8063931763172150E-002
  0.69111111111111123         -6.2178634107112885E-002
  0.70111111111111124         -6.5915718674659729E-002
  0.71111111111111125         -6.9130286574363708E-002
  0.72111111111111126         -7.1669280529022217E-002
  0.73111111111111127         -7.3375441133975983E-002
  0.74111111111111128         -7.4091985821723938E-002
  0.75111111111111128         -7.3668010532855988E-002
  0.76111111111111129         -7.1964316070079803E-002
  0.77111111111111130         -6.8859592080116272E-002
  0.78111111111111109         -6.4256653189659119E-002
  0.79111111111111110         -5.8088447898626328E-002
  0.80111111111111111         -5.0323642790317535E-002
  0.81111111111111112         -4.0971368551254272E-002
  0.82111111111111112         -3.0084950849413872E-002
  0.83111111111111113         -1.7764292657375336E-002
  0.84111111111111114         -4.1567152366042137E-003
  0.85111111111111115          1.0543913580477238E-002
  0.86111111111111116          2.6099871844053268E-002
  0.87111111111111117          4.2234122753143311E-002
  0.88111111111111118          5.8636631816625595E-002
  0.89111111111111119          7.4972324073314667E-002
  0.90111111111111120          9.0890392661094666E-002
  0.91111111111111120         0.10603470355272293     
  0.92111111111111121         0.12005484849214554     
  0.93111111111111122         0.13261744379997253     
  0.94111111111111123         0.14341716468334198     
  0.95111111111111124         0.15218706429004669     
  0.96111111111111125         0.15870776772499084     
  0.97111111111111126         0.16281507909297943     
  0.98111111111111127         0.16440574824810028     
  0.99111111111111128         0.16344112157821655     
   1.0011111111111113         0.15994840860366821     
   1.0111111111111113         0.15401969850063324     
   1.0211111111111113         0.14580865204334259     
   1.0311111111111111         0.13552498817443848     
   1.0411111111111111         0.12342718988656998     
   1.0511111111111111         0.10981348901987076     
   1.0611111111111111          9.5011770725250244E-002
   1.0711111111111111          7.9368665814399719E-002
   1.0811111111111111          6.3238330185413361E-002
   1.0911111111111111          4.6971362084150314E-002
   1.1011111111111112          3.0904358252882957E-002
   1.1111111111111112          1.5350429341197014E-002
   1.1211111111111114          5.9107562992721796E-004
   1.1311111111111112         -1.3130335137248039E-002
   1.1411111111111114         -2.5613350793719292E-002
   1.1511111111111112         -3.6703404039144516E-002
   1.1611111111111110         -4.6292975544929504E-002
   1.1711111111111112         -5.4321065545082092E-002
   1.1811111111111110         -6.0771130025386810E-002
   1.1911111111111112         -6.5667681396007538E-002
   1.2011111111111110         -6.9071769714355469E-002
   1.2111111111111112         -7.1075692772865295E-002
   1.2211111111111110         -7.1797110140323639E-002
   1.2311111111111113         -7.1372911334037781E-002
   1.2411111111111111         -6.9953069090843201E-002
   1.2511111111111113         -6.7694604396820068E-002
   1.2611111111111111         -6.4756020903587341E-002
   1.2711111111111113         -6.1292201280593872E-002
   1.2811111111111111         -5.7450059801340103E-002
   1.2911111111111113         -5.3364939987659454E-002
   1.3011111111111111         -4.9157910048961639E-002
   1.3111111111111113         -4.4933922588825226E-002
   1.3211111111111111         -4.0780849754810333E-002
   1.3311111111111114         -3.6769308149814606E-002
   1.3411111111111111         -3.2953143119812012E-002
   1.3511111111111114         -2.9370501637458801E-002
   1.3611111111111112         -2.6045344769954681E-002
   1.3711111111111114         -2.2989241406321526E-002
   1.3811111111111112         -2.0203363150358200E-002
   1.3911111111111114         -1.7680555582046509E-002
   1.4011111111111112         -1.5407380647957325E-002
   1.4111111111111114         -1.3366074301302433E-002
   1.4211111111111112         -1.1536329053342342E-002
   1.4311111111111110         -9.8968679085373878E-003
   1.4411111111111112         -8.4267752245068550E-003
   1.4511111111111110         -7.1065668016672134E-003
   1.4611111111111112         -5.9189819730818272E-003
   1.4711111111111110         -4.8494879156351089E-003
   1.4811111111111113         -3.8864961825311184E-003
   1.4911111111111111         -3.0213072896003723E-003
   1.5011111111111113         -2.2478152532130480E-003
   1.5111111111111111         -1.5620299382135272E-003
   1.5211111111111113         -9.6149445744231343E-004
   1.5311111111111111         -4.4467390398494899E-004
   1.5411111111111113         -1.0389115232101176E-005
   1.5511111111111111          3.4265275462530553E-004
   1.5611111111111113          6.1620201449841261E-004
   1.5711111111111111          8.1268028588965535E-004
   1.5811111111111114          9.3527825083583593E-004
   1.5911111111111111          9.8796270322054625E-004
   1.6011111111111114          9.7542250296100974E-004
   1.6111111111111112          9.0298493159934878E-004
   1.6211111111111114          7.7653100015595555E-004
   1.6311111111111112          6.0242839390411973E-004
   1.6411111111111114          3.8748938823118806E-004
   1.6511111111111112          1.3894663425162435E-004
   1.6611111111111114         -1.3557348574977368E-004
   1.6711111111111112         -4.2810416198335588E-004
   1.6811111111111110         -7.3043786687776446E-004
   1.6911111111111112         -1.0342791210860014E-003
   1.7011111111111110         -1.3314381940290332E-003
   1.7111111111111112         -1.6140403458848596E-003
   1.7211111111111110         -1.8747184658423066E-003
   1.7311111111111113         -2.1067643538117409E-003
   1.7411111111111111         -2.3042247630655766E-003
   1.7511111111111113         -2.4619444739073515E-003
   1.7611111111111111         -2.5755718816071749E-003
   1.7711111111111113         -2.6415479369461536E-003
   1.7811111111111111         -2.6570954360067844E-003
   1.7911111111111113         -2.6202276349067688E-003
   1.8011111111111111         -2.5297789834439754E-003
   1.8111111111111113         -2.3854603059589863E-003
   1.8211111111111111         -2.1879288833588362E-003
   1.8311111111111114         -1.9388572545722127E-003
   1.8411111111111111         -1.6409805975854397E-003
   1.8511111111111114         -1.2981011532247066E-003
   1.8611111111111112         -9.1503153089433908E-004
   1.8711111111111114         -4.9747340381145477E-004
   1.8811111111111112         -5.1843850087607279E-005
   1.8911111111111114          4.1492015589028597E-004
   1.9011111111111112          8.9554185979068279E-004
   1.9111111111111114          1.3825338101014495E-003
   1.9211111111111112          1.8682538066059351E-003
   1.9311111111111110          2.3448879364877939E-003
   1.9411111111111112          2.8043822385370731E-003
   1.9511111111111110          3.2383641228079796E-003
   1.9611111111111112          3.6381001118570566E-003
   1.9711111111111110          3.9945342577993870E-003
   1.9811111111111113          4.2984429746866226E-003
   1.9911111111111111          4.5407242141664028E-003
   2.0011111111111113          4.7128172591328621E-003
   2.0111111111111111          4.8072268255054951E-003
   2.0211111111111113          4.8181056044995785E-003
   2.0311111111111111          4.7418307512998581E-003
   2.0411111111111113          4.5774928294122219E-003
   2.0511111111111111          4.3272287584841251E-003
   2.0611111111111113          3.9963359013199806E-003
   2.0711111111111111          3.5931363236159086E-003
   2.0811111111111114          3.1285989098250866E-003
   2.0911111111111111          2.6157507672905922E-003
   2.1011111111111114          2.0689473021775484E-003
   2.1111111111111112          1.5030757058411837E-003
   2.1211111111111114          9.3277631094679236E-004
   2.1311111111111112          3.7175809848122299E-004
   2.1411111111111114         -1.6773381503298879E-004
   2.1511111111111112         -6.7525939084589481E-004
   2.1611111111111114         -1.1423213873058558E-003
   2.1711111111111112         -1.5623123617842793E-003
   2.1811111111111114         -1.9303100416436791E-003
   2.1911111111111112         -2.2427772637456656E-003
   2.2011111111111110         -2.4972322862595320E-003
   2.2111111111111112         -2.6919520460069180E-003
   2.2211111111111110         -2.8257546946406364E-003
   2.2311111111111113         -2.8978867921978235E-003
   2.2411111111111111         -2.9080160893499851E-003
   2.2511111111111113         -2.8563099913299084E-003
   2.2611111111111111         -2.7435652446001768E-003
   2.2711111111111113         -2.5713557843118906E-003
   2.2811111111111111         -2.3421626538038254E-003
   2.2911111111111113         -2.0594601519405842E-003
   2.3011111111111111         -1.7277435399591923E-003
   2.3111111111111113         -1.3524950481951237E-003
   2.3211111111111111         -9.4009202439337969E-004
   2.3311111111111114         -4.9767119344323874E-004
   2.3411111111111111         -3.2965606806101277E-005
   2.3511111111111114          4.4587018783204257E-004
   2.3611111111111112          9.3043700326234102E-004
   2.3711111111111114          1.4122673310339451E-003
   2.3811111111111112          1.8830053741112351E-003
   2.3911111111111114          2.3346005473285913E-003
   2.4011111111111112          2.7595192659646273E-003
   2.4111111111111114          3.1509739346802235E-003
   2.4211111111111112          3.5031572915613651E-003
   2.4311111111111114          3.8114595226943493E-003
   2.4411111111111112          4.0726438164710999E-003
   2.4511111111111110          4.2849560268223286E-003
   2.4611111111111112          4.4481544755399227E-003
   2.4711111111111110          4.5634554699063301E-003
   2.4811111111111113          4.6334089711308479E-003
   2.4911111111111111          4.6617188490927219E-003
   2.5011111111111113          4.6530365943908691E-003
   2.5111111111111111          4.6127550303936005E-003
   2.5211111111111113          4.5468141324818134E-003
   2.5311111111111111          4.4615305960178375E-003
   2.5411111111111113          4.3634497560560703E-003
   2.5511111111111111          4.2592007666826248E-003
   2.5611111111111113          4.1553387418389320E-003
   2.5711111111111111          4.0581538341939449E-003
   2.5811111111111114          3.9734384045004845E-003
   2.5911111111111111          3.9062134455889463E-003
   2.6011111111111114          3.8604391738772392E-003
   2.6111111111111112          3.8387365639209747E-003
   2.6211111111111114          3.8421663921326399E-003
   2.6311111111111112          3.8700972218066454E-003
   2.6411111111111114          3.9201863110065460E-003
   2.6511111111111112          3.9884694851934910E-003
   2.6611111111111114          4.0695364587008953E-003
   2.6711111111111112          4.1567515581846237E-003
   2.6811111111111114          4.2424635030329227E-003
   2.6911111111111112          4.3181674554944038E-003
   2.7011111111111110          4.3745893053710461E-003
   2.7111111111111112          4.4016940519213676E-003
   2.7211111111111110          4.3886513449251652E-003
   2.7311111111111113          4.3238163925707340E-003
   2.7411111111111111          4.1948007419705391E-003
   2.7511111111111113          3.9886985905468464E-003
   2.7611111111111111          3.6925268359482288E-003
   2.7711111111111113          3.2938905060291290E-003
   2.7811111111111111          2.7818491216748953E-003
   2.7911111111111113          2.1479120478034019E-003
   2.8011111111111111          1.3870579423382878E-003
   2.8111111111111113          4.9865094479173422E-004
   2.8211111111111111         -5.1286380039528012E-004
   2.8311111111111114         -1.6375805716961622E-003
   2.8411111111111111         -2.8601218946278095E-003
   2.8511111111111114         -4.1599981486797333E-003
   2.8611111111111112         -5.5122957564890385E-003
   2.8711111111111114         -6.8886168301105499E-003
   2.8811111111111112         -8.2581751048564911E-003
   2.8911111111111114         -9.5889577642083168E-003
   2.9011111111111112         -1.0848884470760822E-002
   2.9111111111111114         -1.2006911449134350E-002
   2.9211111111111112         -1.3034069910645485E-002
   2.9311111111111114         -1.3904432766139507E-002
   2.9411111111111112         -1.4596020802855492E-002
   2.9511111111111110         -1.5091646462678909E-002
   2.9611111111111112         -1.5379667282104492E-002
   2.9711111111111110         -1.5454598702490330E-002
   2.9811111111111113         -1.5317527577280998E-002
   2.9911111111111111         -1.4976217411458492E-002
   3.0011111111111113         -1.4444850385189056E-002
   3.0111111111111111         -1.3743350282311440E-002
   3.0211111111111113         -1.2896291911602020E-002
   3.0311111111111111         -1.1931466870009899E-002
   3.0411111111111113         -1.0878203436732292E-002
   3.0511111111111111         -9.7656119614839554E-003
   3.0611111111111113         -8.6209280416369438E-003
   3.0711111111111111         -7.4681132100522518E-003
   3.0811111111111114         -6.3268514350056648E-003
   3.0911111111111111         -5.2119977772235870E-003
   3.1011111111111114         -4.1335001587867737E-003
   3.1111111111111112         -3.0967346392571926E-003
   3.1211111111111109         -2.1031540818512440E-003
   3.1311111111111116         -1.1511262273415923E-003
   3.1411111111111114         -2.3683003382757306E-004
   3.1511111111111112          6.4488907810300589E-004
   3.1611111111111110          1.4997739344835281E-003
   3.1711111111111117          2.3335432633757591E-003
   3.1811111111111114          3.1514014117419720E-003
   3.1911111111111112          3.9576352573931217E-003
   3.2011111111111110          4.7552669420838356E-003
   3.2111111111111108          5.5457320995628834E-003
   3.2211111111111115          6.3285939395427704E-003
   3.2311111111111113          7.1013127453625202E-003
   3.2411111111111111          7.8591154888272285E-003
   3.2511111111111108          8.5950102657079697E-003
   3.2611111111111115          9.2999860644340515E-003
   3.2711111111111113          9.9634090438485146E-003
   3.2811111111111111          1.0573586449027061E-002
   3.2911111111111109          1.1118456721305847E-002
   3.3011111111111116          1.1586319655179977E-002
   3.3111111111111113          1.1966521851718426E-002
   3.3211111111111111          1.2250016443431377E-002
   3.3311111111111109          1.2429728172719479E-002
   3.3411111111111116          1.2500713579356670E-002
   3.3511111111111114          1.2460120022296906E-002
   3.3611111111111112          1.2307005003094673E-002
   3.3711111111111109          1.2042078189551830E-002
   3.3811111111111116          1.1667447164654732E-002
   3.3911111111111114          1.1186425574123859E-002
   3.4011111111111112          1.0603440925478935E-002
   3.4111111111111110          9.9240513518452644E-003
   3.4211111111111117          9.1550378128886223E-003
   3.4311111111111114          8.3045354112982750E-003
   3.4411111111111112          7.3821386322379112E-003
   3.4511111111111110          6.3989311456680298E-003
   3.4611111111111117          5.3673991933465004E-003
   3.4711111111111115          4.3012006208300591E-003
   3.4811111111111113          3.2148042228072882E-003
   3.4911111111111111          2.1230143029242754E-003
   3.5011111111111108          1.0404307395219803E-003
   3.5111111111111115         -1.9107063053525053E-005
   3.5211111111111113         -1.0430382099002600E-003
   3.5311111111111111         -2.0205106120556593E-003
   3.5411111111111109         -2.9426869004964828E-003
   3.5511111111111116         -3.8029020652174950E-003
   3.5611111111111113         -4.5966603793203831E-003
   3.5711111111111111         -5.3214770741760731E-003
   3.5811111111111109         -5.9765740297734737E-003
   3.5911111111111116         -6.5624630078673363E-003
   3.6011111111111114         -7.0804571732878685E-003
   3.6111111111111112         -7.5321663171052933E-003
   3.6211111111111109         -7.9190451651811600E-003
   3.6311111111111116         -8.2420539110898972E-003
   3.6411111111111114         -8.5015008226037025E-003
   3.6511111111111112         -8.6970916017889977E-003
   3.6611111111111110         -8.8282059878110886E-003
   3.6711111111111117         -8.8943559676408768E-003
   3.6811111111111114         -8.8957902044057846E-003
   3.6911111111111112         -8.8341282680630684E-003
   3.7011111111111110         -8.7129529565572739E-003
   3.7111111111111117         -8.5382414981722832E-003
   3.7211111111111115         -8.3185723051428795E-003
   3.7311111111111113         -8.0650374293327332E-003
   3.7411111111111111         -7.7908635139465332E-003
   3.7511111111111108         -7.5107514858245850E-003
   3.7611111111111115         -7.2400160133838654E-003
   3.7711111111111113         -6.9936076179146767E-003
   3.7811111111111111         -6.7851315252482891E-003
   3.7911111111111109         -6.6259652376174927E-003
   3.8011111111111116         -6.5245586447417736E-003
   3.8111111111111113         -6.4859669655561447E-003
   3.8211111111111111         -6.5116412006318569E-003
   3.8311111111111109         -6.5994677133858204E-003
   3.8411111111111116         -6.7440131679177284E-003
   3.8511111111111114         -6.9369394332170486E-003
   3.8611111111111112         -7.1675232611596584E-003
   3.8711111111111109         -7.4232281185686588E-003
   3.8811111111111116         -7.6902722939848900E-003
   3.8911111111111114         -7.9541485756635666E-003
   3.9011111111111112         -8.2000587135553360E-003
   3.9111111111111110         -8.4132561460137367E-003
   3.9211111111111117         -8.5792886093258858E-003
   3.9311111111111114         -8.6841732263565063E-003
   3.9411111111111112         -8.7145296856760979E-003
   3.9511111111111110         -8.6577199399471283E-003
   3.9611111111111117         -8.5020223632454872E-003
   3.9711111111111115         -8.2368738949298859E-003
   3.9811111111111113         -7.8531978651881218E-003
   3.9911111111111111         -7.3438077233731747E-003
   4.0011111111111113         -6.7038745619356632E-003
   4.0111111111111111         -5.9314123354852200E-003
   4.0211111111111109         -5.0277342088520527E-003
   4.0311111111111106         -3.9978246204555035E-003
   4.0411111111111104         -2.8505704831331968E-003
   4.0511111111111120         -1.5988135710358620E-003
   4.0611111111111118         -2.5921015185303986E-004
   4.0711111111111116          1.1480954708531499E-003
   4.0811111111111114          2.5999462231993675E-003
   4.0911111111111111          4.0707546286284924E-003
   4.1011111111111109          5.5331508629024029E-003
   4.1111111111111107          6.9586713798344135E-003
   4.1211111111111105          8.3184717223048210E-003
   4.1311111111111121          9.5840813592076302E-003
   4.1411111111111119          1.0728196240961552E-002
   4.1511111111111116          1.1725528165698051E-002
   4.1611111111111114          1.2553687207400799E-002
   4.1711111111111112          1.3194076716899872E-002
   4.1811111111111110          1.3632728718221188E-002
   4.1911111111111108          1.3861013576388359E-002
   4.2011111111111106          1.3876145705580711E-002
   4.2111111111111121          1.3681416399776936E-002
   4.2211111111111119          1.3286094181239605E-002
   4.2311111111111117          1.2704991735517979E-002
   4.2411111111111115          1.1957709677517414E-002
   4.2511111111111113          1.1067636311054230E-002
   4.2611111111111111          1.0060799308121204E-002
   4.2711111111111109          8.9646857231855392E-003
   4.2811111111111106          7.8071411699056625E-003
   4.2911111111111104          6.6154128871858120E-003
   4.3011111111111120          5.4153762757778168E-003
   4.3111111111111118          4.2309290729463100E-003
   4.3211111111111116          3.0835145153105259E-003
   4.3311111111111114          1.9917297177016735E-003
   4.3411111111111111          9.7098376136273146E-004
   4.3511111111111109          3.3197167795151472E-005
   4.3611111111111107         -8.1343558849766850E-004
   4.3711111111111105         -1.5645805979147553E-003
   4.3811111111111121         -2.2197421640157700E-003
   4.3911111111111119         -2.7820414397865534E-003
   4.4011111111111116         -3.2577693928033113E-003
   4.4111111111111114         -3.6557221319526434E-003
   4.4211111111111112         -3.9863651618361473E-003
   4.4311111111111110         -4.2609069496393204E-003
   4.4411111111111108         -4.4903890229761600E-003
   4.4511111111111106         -4.6849022619426250E-003
   4.4611111111111121         -4.8530227504670620E-003
   4.4711111111111119         -5.0015272572636604E-003
   4.4811111111111117         -5.1353839226067066E-003
   4.4911111111111115         -5.2579669281840324E-003
   4.5011111111111113         -5.3713917732238770E-003
   4.5111111111111111         -5.4768715053796768E-003
   4.5211111111111109         -5.5749895982444286E-003
   4.5311111111111106         -5.6658252142369747E-003
   4.5411111111111104         -5.7489136233925819E-003
   4.5511111111111120         -5.8230692520737648E-003