 -0.88888888888888884          5.4539192414339214E-021
 -0.87888888888888883          2.6660155219675965E-018
 -0.86888888888888882          1.2426982496567901E-017
 -0.85888888888888881          3.2907499992581505E-016
 -0.84888888888888880          1.4137832216577447E-015
 -0.83888888888888880          3.1884145490653198E-015
 -0.82888888888888879          4.4955913686519407E-015
 -0.81888888888888878          3.5019698407546271E-015
 -0.80888888888888888         -1.0630894527587174E-015
 -0.79888888888888887         -8.7924755841416007E-015
 -0.78888888888888886         -1.7412034474298919E-014
 -0.77888888888888885         -2.3335884751798062E-014
 -0.76888888888888884         -2.2180464049107416E-014
 -0.75888888888888884         -9.1117290782253245E-015
 -0.74888888888888883          1.9776438855132784E-014
 -0.73888888888888882          6.3620373617727377E-014
 -0.72888888888888881          1.1109216574000519E-013
 -0.71888888888888880          1.3687198618418661E-013
 -0.70888888888888890          1.0621735560328513E-013
 -0.69888888888888889         -8.9559088972484234E-015
 -0.68888888888888888         -2.0663427024135428E-013
 -0.67888888888888888         -4.3746299985270021E-013
 -0.66888888888888887         -6.1145657764480332E-013
 -0.65888888888888886         -6.3718507466864471E-013
 -0.64888888888888885         -4.7626713770704265E-013
 -0.63888888888888884         -1.6526322953354378E-013
 -0.62888888888888883          2.4874904653443553E-013
 -0.61888888888888882          8.5856728627639600E-013
 -0.60888888888888881          2.0157740494158860E-012
 -0.59888888888888880          4.1899018976554459E-012
 -0.58888888888888880          7.3751890011797272E-012
 -0.57888888888888879          1.0158483429445475E-011
 -0.56888888888888878          9.0910013891831731E-012
 -0.55888888888888877         -5.7689790444737099E-013
 -0.54888888888888876         -2.1974744940367330E-011
 -0.53888888888888875         -5.1950166390923869E-011
 -0.52888888888888885         -7.7130891951160407E-011
 -0.51888888888888884         -7.4742545486117251E-011
 -0.50888888888888884         -2.1603949532100764E-011
 -0.49888888888888883          8.9177637496717921E-011
 -0.48888888888888882          2.3062654563865692E-010
 -0.47888888888888881          3.3567007506896118E-010
 -0.46888888888888886          3.1431035552031972E-010
 -0.45888888888888885          9.7282640276752375E-011
 -0.44888888888888884         -3.0693833585893060E-010
 -0.43888888888888883         -7.7099227002719317E-010
 -0.42888888888888882         -1.0576522990746184E-009
 -0.41888888888888881         -8.9913448908518490E-010
 -0.40888888888888886         -1.3409356958149488E-010
 -0.39888888888888885          1.1490182139084482E-009
 -0.38888888888888884          2.5377806522897117E-009
 -0.37888888888888883          3.3577745028878780E-009
 -0.36888888888888882          2.8913265115448894E-009
 -0.35888888888888881          7.0398864515652804E-010
 -0.34888888888888880         -3.0341389400945218E-009
 -0.33888888888888880         -7.3724373272909816E-009
 -0.32888888888888879         -1.0663442573388693E-008
 -0.31888888888888878         -1.0947135642425110E-008
 -0.30888888888888888         -6.5808931637434398E-009
 -0.29888888888888887          3.0280229434964667E-009
 -0.28888888888888886          1.6788847645443639E-008
 -0.27888888888888885          3.1613918594075585E-008
 -0.26888888888888884          4.2626943752566149E-008
 -0.25888888888888884          4.4028780621374608E-008
 -0.24888888888888883          3.0631454706053773E-008
 -0.23888888888888882         -1.2354882394927102E-010
 -0.22888888888888881         -4.6092360150851164E-008
 -0.21888888888888880         -9.8961372430039773E-008
 -0.20888888888888879         -1.4415202542750194E-007
 -0.19888888888888878         -1.6273340008865489E-007
 -0.18888888888888877         -1.3555433042711229E-007
 -0.17888888888888888         -4.9141409164121796E-008
 -0.16888888888888887          9.7827481226886448E-008
 -0.15888888888888886          2.8923381023560069E-007
 -0.14888888888888885          4.8934936103250948E-007
 -0.13888888888888884          6.4538630795141216E-007
 -0.12888888888888883          6.9553829007418244E-007
 -0.11888888888888882          5.8211480791214854E-007
 -0.10888888888888881          2.6808214670381858E-007
  -9.8888888888888804E-002    -2.4586674385318474E-007
  -8.8888888888888795E-002    -9.0748113734662184E-007
  -7.8888888888888786E-002    -1.6065254158093012E-006
  -6.8888888888888777E-002    -2.1796206510771299E-006
  -5.8888888888888768E-002    -2.4290254714287585E-006
  -4.8888888888888871E-002    -2.1558300886681536E-006
  -3.8888888888888862E-002    -1.2049514452883159E-006
  -2.8888888888888853E-002     4.8423424914290081E-007
  -1.8888888888888844E-002     2.8310644211160252E-006
  -8.8888888888888351E-003     5.5821255955379456E-006
   1.1111111111111738E-003     8.3068562162225135E-006
   1.1111111111111183E-002     1.0429657777422108E-005
   2.1111111111111192E-002     1.1303327482892200E-005
   3.1111111111111200E-002     1.0322238267690409E-005
   4.1111111111111209E-002     7.0665237217326649E-006
   5.1111111111111218E-002     1.4617254464610596E-006
   6.1111111111111227E-002    -6.0668617152259685E-006
   7.1111111111111125E-002    -1.4468301742454059E-005
   8.1111111111111134E-002    -2.1990616005496122E-005
   9.1111111111111143E-002    -2.6172490834142081E-005
  0.10111111111111115         -2.3909424271550961E-005
  0.11111111111111116         -1.1589242603804450E-005
  0.12111111111111117          1.4721415027452167E-005
  0.13111111111111118          5.9069679991807789E-005
  0.14111111111111119          1.2542530021164566E-004
  0.15111111111111120          2.1754304179921746E-004
  0.16111111111111120          3.3890845952555537E-004
  0.17111111111111121          4.9278250662609935E-004
  0.18111111111111122          6.8234122591093183E-004
  0.19111111111111123          9.1088772751390934E-004
  0.20111111111111124          1.1820950312539935E-003
  0.21111111111111125          1.5002288855612278E-003
  0.22111111111111126          1.8702945671975613E-003
  0.23111111111111127          2.2980575449764729E-003
  0.24111111111111128          2.7899015694856644E-003
  0.25111111111111128          3.3525039907544851E-003
  0.26111111111111129          3.9923321455717087E-003
  0.27111111111111108          4.7149835154414177E-003
  0.28111111111111109          5.5244127288460732E-003
  0.29111111111111110          6.4220968633890152E-003
  0.30111111111111111          7.4061919003725052E-003
  0.31111111111111112          8.4707383066415787E-003
  0.32111111111111112          9.6049644052982330E-003
  0.33111111111111113          1.0792724788188934E-002
  0.34111111111111114          1.2012118473649025E-002
  0.35111111111111115          1.3235321268439293E-002
  0.36111111111111116          1.4428669586777687E-002
  0.37111111111111117          1.5553042292594910E-002
  0.38111111111111118          1.6564555466175079E-002
  0.39111111111111119          1.7415603622794151E-002
  0.40111111111111120          1.8056228756904602E-002
  0.41111111111111120          1.8435804173350334E-002
  0.42111111111111121          1.8504953011870384E-002
  0.43111111111111122          1.8217634409666061E-002
  0.44111111111111123          1.7533298581838608E-002
  0.45111111111111124          1.6418984159827232E-002
  0.46111111111111125          1.4851274900138378E-002
  0.47111111111111126          1.2818000279366970E-002
  0.48111111111111127          1.0319613851606846E-002
  0.49111111111111128          7.3701944202184677E-003
  0.50111111111111128          3.9980313740670681E-003
  0.51111111111111129          2.4577553267590702E-004
  0.52111111111111108         -3.8298584986478090E-003
  0.53111111111111109         -8.1588476896286011E-003
  0.54111111111111110         -1.2659095227718353E-002
  0.55111111111111111         -1.7238145694136620E-002
  0.56111111111111112         -2.1795392036437988E-002
  0.57111111111111112         -2.6224728673696518E-002
  0.58111111111111113         -3.0417591333389282E-002
  0.59111111111111114         -3.4266270697116852E-002
  0.60111111111111115         -3.7667334079742432E-002
  0.61111111111111116         -4.0525000542402267E-002
  0.62111111111111117         -4.2754288762807846E-002
  0.63111111111111118         -4.4283792376518250E-002
  0.64111111111111119         -4.5057978481054306E-002
  0.65111111111111120         -4.5038964599370956E-002
  0.66111111111111120         -4.4207800179719925E-002
  0.67111111111111121         -4.2565256357192993E-002
  0.68111111111111122         -4.0132209658622742E-002
  0.69111111111111123         -3.6949630826711655E-002
  0.70111111111111124         -3.3078175038099289E-002
  0.71111111111111125         -2.8597349300980568E-002
  0.72111111111111126         -2.3604109883308411E-002
  0.73111111111111127         -1.8210789188742638E-002
  0.74111111111111128         -1.2542232871055603E-002
  0.75111111111111128         -6.7321006208658218E-003
  0.76111111111111129         -9.1838242951780558E-004
  0.77111111111111130          4.7616665251553059E-003
  0.78111111111111109          1.0176867246627808E-002
  0.79111111111111110          1.5207307413220406E-002
  0.80111111111111111          1.9748941063880920E-002
  0.81111111111111112          2.3717174306511879E-002
  0.82111111111111112          2.7049168944358826E-002
  0.83111111111111113          2.9704706743359566E-002
  0.84111111111111114          3.1665712594985962E-002
  0.85111111111111115          3.2934658229351044E-002
  0.86111111111111116          3.3532220870256424E-002
  0.87111111111111117          3.3494643867015839E-002
  0.88111111111111118          3.2871153205633163E-002
  0.89111111111111119          3.1721744686365128E-002
  0.90111111111111120          3.0115436762571335E-002
  0.91111111111111120          2.8128916397690773E-002
  0.92111111111111121          2.5845354422926903E-002
  0.93111111111111122          2.3353042080998421E-002
  0.94111111111111123          2.0743547007441521E-002
  0.95111111111111124          1.8109142780303955E-002
  0.96111111111111125          1.5539473854005337E-002
  0.97111111111111126          1.3117618858814240E-002
  0.98111111111111127          1.0915952734649181E-002
  0.99111111111111128          8.9923162013292313E-003
   1.0011111111111113          7.3870699852705002E-003
   1.0111111111111113          6.1215204186737537E-003
   1.0211111111111113          5.1980246789753437E-003
   1.0311111111111111          4.6018119901418686E-003
   1.0411111111111111          4.3042753823101521E-003
   1.0511111111111111          4.2672236450016499E-003
   1.0611111111111111          4.4474168680608273E-003
   1.0711111111111111          4.8006554134190083E-003
   1.0811111111111111          5.2847955375909805E-003
   1.0911111111111111          5.8612879365682602E-003
   1.1011111111111112          6.4951558597385883E-003
   1.1111111111111112          7.1536805480718613E-003
   1.1211111111111114          7.8043602406978607E-003
   1.1311111111111112          8.4128864109516144E-003
   1.1411111111111114          8.9418999850749969E-003
   1.1511111111111112          9.3511370941996574E-003
   1.1611111111111110          9.5992544665932655E-003
   1.1711111111111112          9.6472380682826042E-003
   1.1811111111111110          9.4629041850566864E-003
   1.1911111111111112          9.0256957337260246E-003
   1.2011111111111110          8.3308098837733269E-003
   1.2111111111111112          7.3917475529015064E-003
   1.2211111111111110          6.2406104989349842E-003
   1.2311111111111113          4.9258582293987274E-003
   1.2411111111111111          3.5077279899269342E-003
   1.2511111111111113          2.0519776735454798E-003
   1.2611111111111111          6.2296475516632199E-004
   1.2711111111111113         -7.2276726132258773E-004
   1.2811111111111111         -1.9413101254031062E-003
   1.2911111111111113         -3.0038461554795504E-003
   1.3011111111111111         -3.8964485283941031E-003
   1.3111111111111113         -4.6174856834113598E-003
   1.3211111111111111         -5.1733818836510181E-003
   1.3311111111111114         -5.5738026276230812E-003
   1.3411111111111111         -5.8274148032069206E-003
   1.3511111111111114         -5.9391860850155354E-003
   1.3611111111111112         -5.9097819030284882E-003
   1.3711111111111114         -5.7370858266949654E-003
   1.3811111111111112         -5.4193413816392422E-003
   1.3911111111111114         -4.9589863047003746E-003
   1.4011111111111112         -4.3660616502165794E-003
   1.4111111111111114         -3.6601417232304811E-003
   1.4211111111111112         -2.8700625989586115E-003
   1.4311111111111110         -2.0312443375587463E-003
   1.4411111111111112         -1.1810034047812223E-003
   1.4511111111111110         -3.5278135328553617E-004
   1.4611111111111112          4.2944672168232501E-004
   1.4711111111111110          1.1552684009075165E-003
   1.4811111111111113          1.8293821485713124E-003
   1.4911111111111111          2.4700704962015152E-003
   1.5011111111111113          3.1047430820763111E-003
   1.5111111111111111          3.7633655592799187E-003
   1.5211111111111113          4.4710952788591385E-003
   1.5311111111111111          5.2416697144508362E-003
   1.5411111111111113          6.0729789547622204E-003
   1.5511111111111111          6.9458265788853168E-003
   1.5611111111111113          7.8262202441692352E-003
   1.5711111111111111          8.6707957088947296E-003
   1.5811111111111114          9.4342976808547974E-003
   1.5911111111111111          1.0077592916786671E-002
   1.6011111111111114          1.0574541054666042E-002
   1.6111111111111112          1.0916271246969700E-002
   1.6211111111111114          1.1111926287412643E-002
   1.6311111111111112          1.1185681447386742E-002
   1.6411111111111114          1.1170622892677784E-002
   1.6511111111111112          1.1100746691226959E-002
   1.6611111111111114          1.1002751067280769E-002
   1.6711111111111112          1.0889340192079544E-002
   1.6811111111111110          1.0755458846688271E-002
   1.6911111111111112          1.0578266344964504E-002
   1.7011111111111110          1.0320887900888920E-002
   1.7111111111111112          9.9391993135213852E-003
   1.7211111111111110          9.3903020024299622E-003
   1.7311111111111113          8.6410064250230789E-003
   1.7411111111111111          7.6746526174247265E-003
   1.7511111111111113          6.4949486404657364E-003
   1.7611111111111111          5.1261112093925476E-003
   1.7711111111111113          3.6093457601964474E-003
   1.7811111111111111          1.9964405801147223E-003
   1.7911111111111113          3.4182026865892112E-004
   1.8011111111111111         -1.3053021393716335E-003
   1.8111111111111113         -2.9070808086544275E-003
   1.8211111111111111         -4.4403038918972015E-003
   1.8311111111111114         -5.8962171897292137E-003
   1.8411111111111111         -7.2771166451275349E-003
   1.8511111111111114         -8.5906377062201500E-003
   1.8611111111111112         -9.8431743681430817E-003
   1.8711111111111114         -1.1034046299755573E-002
   1.8811111111111112         -1.2151862494647503E-002
   1.8911111111111114         -1.3174024410545826E-002
   1.9011111111111112         -1.4069614931941032E-002
   1.9111111111111114         -1.4805123209953308E-002
   1.9211111111111112         -1.5351806767284870E-002
   1.9311111111111110         -1.5693046152591705E-002
   1.9411111111111112         -1.5829978510737419E-002
   1.9511111111111110         -1.5784002840518951E-002
   1.9611111111111112         -1.5595345757901669E-002
   1.9711111111111110         -1.5317725948989391E-002
   1.9811111111111113         -1.5010011382400990E-002
   1.9911111111111111         -1.4726432040333748E-002
   2.0011111111111113         -1.4507307671010494E-002
   2.0111111111111111         -1.4372193254530430E-002
   2.0211111111111113         -1.4316870830953121E-002
   2.0311111111111111         -1.4314837753772736E-002
   2.0411111111111113         -1.4322991482913494E-002
   2.0511111111111111         -1.4290342107415199E-002
   2.0611111111111113         -1.4167946763336658E-002
   2.0711111111111111         -1.3918034732341766E-002
   2.0811111111111114         -1.3520481064915657E-002
   2.0911111111111111         -1.2975394725799561E-002
   2.1011111111111114         -1.2301410548388958E-002
   2.1111111111111112         -1.1530217714607716E-002
   2.1211111111111114         -1.0698649100959301E-002
   2.1311111111111112         -9.8401587456464767E-003
   2.1411111111111114         -8.9776124805212021E-003
   2.1511111111111112         -8.1189936026930809E-003
   2.1611111111111114         -7.2569325566291809E-003
   2.1711111111111112         -6.3721095211803913E-003
   2.1811111111111114         -5.4396907798945904E-003
   2.1911111111111112         -4.4372975826263428E-003
   2.2011111111111110         -3.3526939805597067E-003
   2.2111111111111112         -2.1894704550504684E-003
   2.2211111111111110         -9.6947734709829092E-004
   2.2311111111111113          2.6850821450352669E-004
   2.2411111111111111          1.4735902659595013E-003
   2.2511111111111113          2.5900336913764477E-003
   2.2611111111111111          3.5655456595122814E-003
   2.2711111111111113          4.3589444831013680E-003
   2.2811111111111111          4.9457959830760956E-003
   2.2911111111111113          5.3210631012916565E-003
   2.3011111111111111          5.4984497837722301E-003
   2.3111111111111113          5.5067781358957291E-003
   2.3211111111111111          5.3843031637370586E-003
   2.3311111111111114          5.1722032949328423E-003
   2.3411111111111111          4.9085645005106926E-003
   2.3511111111111114          4.6239639632403851E-003
   2.3611111111111112          4.3393452651798725E-003
   2.3711111111111114          4.0663424879312515E-003
   2.3811111111111112          3.8096888456493616E-003
   2.3911111111111114          3.5709331277757883E-003
   2.4011111111111112          3.3524662721902132E-003
   2.4111111111111114          3.1608517747372389E-003
   2.4211111111111112          3.0086431652307510E-003
   2.4311111111111114          2.9142098501324654E-003
   2.4411111111111112          2.8995035681873560E-003
   2.4511111111111110          2.9861296061426401E-003
   2.4611111111111112          3.1904443167150021E-003
   2.4711111111111110          3.5186484456062317E-003
   2.4811111111111113          3.9629177190363407E-003
   2.4911111111111111          4.4994913041591644E-003
   2.5011111111111113          5.0893314182758331E-003
   2.5111111111111111          5.6815161369740963E-003
   2.5211111111111113          6.2189991585910320E-003
   2.5311111111111111          6.6458913497626781E-003
   2.5411111111111113          6.9150617346167564E-003
   2.5511111111111111          6.9947247393429279E-003
   2.5611111111111113          6.8727927282452583E-003
   2.5711111111111111          6.5581463277339935E-003
   2.5811111111111114          6.0785156674683094E-003
   2.5911111111111111          5.4753045551478863E-003
   2.6011111111111114          4.7962823882699013E-003
   2.6111111111111112          4.0875296108424664E-003
   2.6211111111111114          3.3861906267702579E-003
   2.6311111111111112          2.7154777199029922E-003
   2.6411111111111114          2.0829255226999521E-003
   2.6511111111111112          1.4822212979197502E-003
   2.6611111111111114          8.9816108811646700E-004
   2.6711111111111112          3.1357674743048847E-004
   2.6811111111111114         -2.8338551055639982E-004
   2.6911111111111112         -8.9336093515157700E-004
   2.7011111111111110         -1.5026689507067204E-003
   2.7111111111111112         -2.0838270429521799E-003
   2.7211111111111110         -2.5996575132012367E-003
   2.7311111111111113         -3.0101393349468708E-003
   2.7411111111111111         -3.2805176451802254E-003
   2.7511111111111113         -3.3888751640915871E-003
   2.7611111111111111         -3.3314619213342667E-003
   2.7711111111111113         -3.1245569698512554E-003
   2.7811111111111111         -2.8023831546306610E-003
   2.7911111111111113         -2.4114600382745266E-003
   2.8011111111111111         -2.0025577396154404E-003
   2.8111111111111113         -1.6219444805756211E-003
   2.8211111111111111         -1.3037642929702997E-003
   2.8311111111111114         -1.0651212651282549E-003
   2.8411111111111111         -9.0482312953099608E-004
   2.8511111111111114         -8.0591277219355106E-004
   2.8611111111111112         -7.4127328116446733E-004
   2.8711111111111114         -6.8093760637566447E-004
   2.8811111111111112         -5.9940840583294630E-004
   2.8911111111111114         -4.8136722762137651E-004
   2.9011111111111112         -3.2458570785820484E-004
   2.9111111111111114         -1.3952894369140267E-004
   2.9211111111111112          5.4100535635370761E-005
   2.9311111111111114          2.3296258586924523E-004
   2.9411111111111112          3.7646864075213671E-004
   2.9511111111111110          4.7247478505596519E-004
   2.9611111111111112          5.2098260493949056E-004
   2.9711111111111110          5.3500995272770524E-004
   2.9811111111111113          5.3841760382056236E-004
   2.9911111111111111          5.6113553000614047E-004
   3.0011111111111113          6.3278793822973967E-004
   3.0111111111111111          7.7605282422155142E-004
   3.0211111111111113          1.0011459235101938E-003
   3.0311111111111111          1.3025827938690782E-003
   3.0411111111111113          1.6589039005339146E-003
   3.0511111111111111          2.0354536827653646E-003
   3.0611111111111113          2.3897010833024979E-003
   3.0711111111111111          2.6781109627336264E-003
   3.0811111111111114          2.8632830362766981E-003
   3.0911111111111111          2.9200380668044090E-003
   3.1011111111111114          2.8393231332302094E-003
   3.1111111111111112          2.6292076800018549E-003
   3.1211111111111109          2.3127752356231213E-003
   3.1311111111111116          1.9232961349189281E-003
   3.1411111111111114          1.4975935919210315E-003
   3.1511111111111112          1.0688912589102983E-003
   3.1611111111111110          6.6057016374543309E-004
   3.1711111111111117          2.8211751487106085E-004
   3.1811111111111114         -7.1860355092212558E-005
   3.1911111111111112         -4.1930406587198377E-004
   3.2011111111111110         -7.8547769226133823E-004
   3.2111111111111108         -1.1959107359871268E-003
   3.2211111111111115         -1.6689781332388520E-003
   3.2311111111111113         -2.2097094915807247E-003
   3.2411111111111111         -2.8062078636139631E-003
   3.2511111111111108         -3.4295509103685617E-003
   3.2611111111111115         -4.0373471565544605E-003
   3.2711111111111113         -4.5803557150065899E-003
   3.2811111111111111         -5.0109187141060829E-003
   3.2911111111111109         -5.2915341220796108E-003
   3.3011111111111116         -5.4018297232687473E-003
   3.3111111111111113         -5.3424937650561333E-003
   3.3211111111111111         -5.1353680901229382E-003
   3.3311111111111109         -4.8197205178439617E-003
   3.3411111111111116         -4.4455621391534805E-003
   3.3511111111111114         -4.0655122138559818E-003
   3.3611111111111112         -3.7270004395395517E-003
   3.3711111111111109         -3.4664769191294909E-003
   3.3811111111111116         -3.3067755866795778E-003
   3.3911111111111114         -3.2580106053501368E-003
   3.4011111111111112         -3.3215486910194159E-003
   3.4111111111111110         -3.4958973992615938E-003
   3.4211111111111117         -3.7829282227903605E-003
   3.4311111111111114         -4.1928216814994812E-003
   3.4411111111111112         -4.7464366070926189E-003
   3.4511111111111110         -5.4744216613471508E-003
   3.4611111111111117         -6.4131477847695351E-003
   3.4711111111111115         -7.5982538983225822E-003
   3.4811111111111113         -9.0571455657482147E-003
   3.4911111111111111         -1.0802005417644978E-002
   3.5011111111111108         -1.2824740260839462E-002
   3.5111111111111115         -1.5094842761754990E-002
   3.5211111111111113         -1.7560487613081932E-002
   3.5311111111111111         -2.0152496173977852E-002
   3.5411111111111109         -2.2790230810642242E-002
   3.5511111111111116         -2.5388196110725403E-002
   3.5611111111111113         -2.7862105518579483E-002
   3.5711111111111111         -3.0133420601487160E-002
   3.5811111111111109         -3.2131854444742203E-002
   3.5911111111111116         -3.3795751631259918E-002
   3.6011111111111114         -3.5070747137069702E-002
   3.6111111111111112         -3.5907361656427383E-002
   3.6211111111111109         -3.6258365958929062E-002
   3.6311111111111116         -3.6076679825782776E-002
   3.6411111111111114         -3.5314474254846573E-002
   3.6511111111111112         -3.3923842012882233E-002
   3.6611111111111110         -3.1859144568443298E-002
   3.6711111111111117         -2.9080826789140701E-002
   3.6811111111111114         -2.5560235604643822E-002
   3.6911111111111112         -2.1284835413098335E-002
   3.7011111111111110         -1.6263116151094437E-002
   3.7111111111111117         -1.0528534650802612E-002
   3.7211111111111115         -4.1419183835387230E-003
   3.7311111111111113          2.8080795891582966E-003
   3.7411111111111111          1.0206674225628376E-002
   3.7511111111111108          1.7916765064001083E-002
   3.7611111111111115          2.5784570723772049E-002
   3.7711111111111113          3.3646520227193832E-002
   3.7811111111111111          4.1336596012115479E-002
   3.7911111111111109          4.8693235963582993E-002
   3.8011111111111116          5.5564951151609421E-002
   3.8111111111111113          6.1814043670892715E-002
   3.8211111111111111          6.7318260669708252E-002
   3.8311111111111109          7.1970656514167786E-002
   3.8411111111111116          7.5678430497646332E-002
   3.8511111111111114          7.8361608088016510E-002
   3.8611111111111112          7.9952649772167206E-002
   3.8711111111111109          8.0397561192512512E-002
   3.8811111111111116          7.9658888280391693E-002
   3.8911111111111114          7.7720209956169128E-002
   3.9011111111111112          7.4591457843780518E-002
   3.9111111111111110          7.0313833653926849E-002
   3.9211111111111117          6.4963147044181824E-002
   3.9311111111111114          5.8650486171245575E-002
   3.9411111111111112          5.1519494503736496E-002
   3.9511111111111110          4.3740287423133850E-002
   3.9611111111111117          3.5500563681125641E-002
   3.9711111111111115          2.6995126157999039E-002
   3.9811111111111113          1.8415352329611778E-002
   3.9911111111111111          9.9401175975799561E-003
   4.0011111111111113          1.7293338896706700E-003
   4.0111111111111111         -6.0793319717049599E-003
   4.0211111111111109         -1.3370734639465809E-002
   4.0311111111111106         -2.0050285384058952E-002
   4.0411111111111104         -2.6040891185402870E-002
   4.0511111111111120         -3.1279984861612320E-002
   4.0611111111111118         -3.5717602819204330E-002
   4.0711111111111116         -3.9316032081842422E-002
   4.0811111111111114         -4.2051017284393311E-002
   4.0911111111111111         -4.3914098292589188E-002
   4.1011111111111109         -4.4915329664945602E-002
   4.1111111111111107         -4.5085497200489044E-002
   4.1211111111111105         -4.4477071613073349E-002
   4.1311111111111121         -4.3163347989320755E-002
   4.1411111111111119         -4.1235648095607758E-002
   4.1511111111111116         -3.8798805326223373E-002
   4.1611111111111114         -3.5965487360954285E-002
   4.1711111111111112         -3.2850120216608047E-002
   4.1811111111111110         -2.9563181102275848E-002
   4.1911111111111108         -2.6206400245428085E-002
   4.2011111111111106         -2.2869249805808067E-002
   4.2111111111111121         -1.9626772031188011E-002
   4.2211111111111119         -1.6538631170988083E-002
   4.2311111111111117         -1.3649232685565948E-002
   4.2411111111111115         -1.0988730005919933E-002
   4.2511111111111113         -8.5747716948390007E-003
   4.2611111111111111         -6.4148507080972195E-003
   4.2711111111111109         -4.5090266503393650E-003
   4.2811111111111106         -2.8527004178613424E-003
   4.2911111111111104         -1.4390312135219574E-003
   4.3011111111111120         -2.6060134405270219E-004
   4.3111111111111118          6.8995490437373519E-004
   4.3211111111111116          1.4204238541424274E-003
   4.3311111111111114          1.9404004560783505E-003
   4.3411111111111111          2.2631795145571232E-003
   4.3511111111111109          2.4075959809124470E-003
   4.3611111111111107          2.3992282804101706E-003
   4.3711111111111105          2.2704782895743847E-003
   4.3811111111111121          2.0592387299984694E-003
   4.3911111111111119          1.8061579903587699E-003
   4.4011111111111116          1.5508395154029131E-003
   4.4111111111111114          1.3276246609166265E-003
   4.4211111111111112          1.1618039570748806E-003
   4.4311111111111110          1.0671088239178061E-003
   4.4411111111111108          1.0451122652739286E-003
   4.4511111111111106          1.0867411037907004E-003
   4.4611111111111121          1.1755840387195349E-003
   4.4711111111111119          1.2922119349241257E-003
   4.4811111111111117          1.4184700557962060E-003
   4.4911111111111115          1.5407291939482093E-003
   4.5011111111111113          1.6513919690623879E-003
   4.5111111111111111          1.7484391573816538E-003
   4.5211111111111109          1.8333186162635684E-003
   4.5311111111111106          1.9078892655670643E-003
   4.5411111111111104          1.9713288638740778E-003
   4.5511111111111120          2.0178861450403929E-003