 -0.88888888888888884          0.0000000000000000     
 -0.87888888888888883          0.0000000000000000     
 -0.86888888888888882          0.0000000000000000     
 -0.85888888888888881          0.0000000000000000     
 -0.84888888888888880          0.0000000000000000     
 -0.83888888888888880          0.0000000000000000     
 -0.82888888888888879          0.0000000000000000     
 -0.81888888888888878          6.1675136312961596E-037
 -0.80888888888888888         -2.8364595459423404E-035
 -0.79888888888888887         -1.4854389207667675E-034
 -0.78888888888888886         -2.4483453478315847E-034
 -0.77888888888888885         -7.6860024144526630E-034
 -0.76888888888888884         -7.9019808588105382E-033
 -0.75888888888888884         -3.8446934874646836E-032
 -0.74888888888888883         -9.1903333936977166E-032
 -0.73888888888888882         -5.8822430856814252E-032
 -0.72888888888888881          3.2099318277452271E-031
 -0.71888888888888880          1.0917735742866667E-030
 -0.70888888888888890          1.1221214530011678E-030
 -0.69888888888888889         -2.3527694345267487E-030
 -0.68888888888888888         -1.0889493033475167E-029
 -0.67888888888888888         -1.7190984595916913E-029
 -0.66888888888888887          8.3845764498954996E-031
 -0.65888888888888886          6.6897724304618572E-029
 -0.64888888888888885          1.5991175680473290E-028
 -0.63888888888888884          1.5809509931056534E-028
 -0.62888888888888883         -1.4134013472162831E-028
 -0.61888888888888882         -8.2508928451538844E-028
 -0.60888888888888881         -1.5130059420787460E-027
 -0.59888888888888880         -1.1538561186369837E-027
 -0.58888888888888880          1.5112407309882178E-027
 -0.57888888888888879          6.5171435536042788E-027
 -0.56888888888888878          1.0877884207864412E-026
 -0.55888888888888877          8.2354050943201056E-027
 -0.54888888888888876         -7.8834683600025596E-027
 -0.53888888888888875         -3.6841613107225020E-026
 -0.52888888888888885         -6.3359588437097319E-026
 -0.51888888888888884         -5.7276213610775622E-026
 -0.50888888888888884          1.2094602005810715E-026
 -0.49888888888888883          1.4740455194543193E-025
 -0.48888888888888882          2.9439556821320502E-025
 -0.47888888888888881          3.3782369224839928E-025
 -0.46888888888888886          1.4497763369647113E-025
 -0.45888888888888885         -3.4294825594823142E-025
 -0.44888888888888884         -1.0082539698004220E-024
 -0.43888888888888883         -1.5109005586043726E-024
 -0.42888888888888882         -1.3680207895517719E-024
 -0.41888888888888881         -1.8209764382901721E-025
 -0.40888888888888886          2.0414755844663153E-024
 -0.39888888888888885          4.6330325556131995E-024
 -0.38888888888888884          6.2426255299175098E-024
 -0.37888888888888883          5.2203292443584749E-024
 -0.36888888888888882          4.0879117235198866E-025
 -0.35888888888888881         -7.8506522208945039E-024
 -0.34888888888888880         -1.6937889664655447E-023
 -0.33888888888888880         -2.2010921617499696E-023
 -0.32888888888888879         -1.7470154627791599E-023
 -0.31888888888888878          1.4831165878626249E-026
 -0.30888888888888888          2.7643516276244366E-023
 -0.29888888888888887          5.3721945138304729E-023
 -0.28888888888888886          5.8917383060090313E-023
 -0.27888888888888885          2.4239041889356529E-023
 -0.26888888888888884         -5.4007784154146131E-023
 -0.25888888888888884         -1.4714282939353926E-022
 -0.24888888888888883         -1.8616318404891071E-022
 -0.23888888888888882         -7.8195206141308618E-023
 -0.22888888888888881          2.4130563417469053E-022
 -0.21888888888888880          7.2588309730956790E-022
 -0.20888888888888879          1.1390471915053217E-021
 -0.19888888888888878          1.0435817438668226E-021
 -0.18888888888888877         -6.5417962950571473E-023
 -0.17888888888888888         -2.4441793657038985E-021
 -0.16888888888888887         -5.6589481539380502E-021
 -0.15888888888888886         -8.2219596078947204E-021
 -0.14888888888888885         -7.6329423882716090E-021
 -0.13888888888888884         -1.1588906404773579E-021
 -0.12888888888888883          1.2534835700893592E-020
 -0.11888888888888882          3.1262858274089798E-020
 -0.10888888888888881          4.7680138073628483E-020
  -9.8888888888888804E-002     4.9556300025172390E-020
  -8.8888888888888795E-002     2.3302487264772870E-020
  -7.8888888888888786E-002    -3.8896006649720978E-020
  -6.8888888888888777E-002    -1.2989935772077349E-019
  -5.8888888888888768E-002    -2.2029600735543530E-019
  -4.8888888888888871E-002    -2.5859232421692667E-019
  -3.8888888888888862E-002    -1.8424180231836013E-019
  -2.8888888888888853E-002     4.4741688807458957E-020
  -1.8888888888888844E-002     4.1495435295600792E-019
  -8.8888888888888351E-003     8.2597541040053791E-019
   1.1111111111111738E-003     1.0855364148135525E-018
   1.1111111111111183E-002     9.5287660029232467E-019
   2.1111111111111192E-002     2.3891703201613450E-019
   3.1111111111111200E-002    -1.0549024012131105E-018
   4.1111111111111209E-002    -2.6121548971521249E-018
   5.1111111111111218E-002    -3.7721239186153428E-018
   6.1111111111111227E-002    -3.6754045847216612E-018
   7.1111111111111125E-002    -1.6150707663952459E-018
   8.1111111111111134E-002     2.4758239516748102E-018
   9.1111111111111143E-002     7.5937000029715557E-018
  0.10111111111111115          1.1573356092650940E-017
  0.11111111111111116          1.1597616472836508E-017
  0.12111111111111117          5.3814323380683912E-018
  0.13111111111111118         -7.2399893012377556E-018
  0.14111111111111119         -2.2981145368254491E-017
  0.15111111111111120         -3.4935304809242181E-017
  0.16111111111111120         -3.4324230094802307E-017
  0.17111111111111121         -1.4280111914147998E-017
  0.18111111111111122          2.5302447432011027E-017
  0.19111111111111123          7.3928876817677723E-017
  0.20111111111111124          1.1033703957329712E-016
  0.21111111111111125          1.0806731552945572E-016
  0.22111111111111126          4.6811520675470224E-017
  0.23111111111111127         -7.3520216507852026E-017
  0.24111111111111128         -2.2211797915408721E-016
  0.25111111111111128         -3.3739508692933883E-016
  0.26111111111111129         -3.4335234905671713E-016
  0.27111111111111108         -1.8175857975309391E-016
  0.28111111111111109          1.4883316501367798E-016
  0.29111111111111110          5.6426846786798929E-016
  0.30111111111111111          8.9629712462043929E-016
  0.31111111111111112          9.3861605533556661E-016
  0.32111111111111112          5.3546897708442866E-016
  0.33111111111111113         -3.1226375173320174E-016
  0.34111111111111114         -1.3699903477352765E-015
  0.35111111111111115         -2.1759063040266034E-015
  0.36111111111111116         -2.1697837381256125E-015
  0.37111111111111117         -9.3953646251187682E-016
  0.38111111111111118          1.4811390698651699E-015
  0.39111111111111119          4.3901340726528858E-015
  0.40111111111111120          6.4215414263173523E-015
  0.41111111111111120          5.8939394265492256E-015
  0.42111111111111121          1.5086702876288948E-015
  0.43111111111111122         -6.7630812042762840E-015
  0.44111111111111123         -1.6938809025129203E-014
  0.45111111111111124         -2.4864013503807757E-014
  0.46111111111111125         -2.5014931058085950E-014
  0.47111111111111126         -1.2392454548431839E-014
  0.48111111111111127          1.4802097264912661E-014
  0.49111111111111128          5.2528595758044930E-014
  0.50111111111111128          8.9517816445096321E-014
  0.51111111111111129          1.0838695934690945E-013
  0.52111111111111108          9.0041499646933976E-014
  0.53111111111111109          2.1107242811750117E-014
  0.54111111111111110         -9.7277512379947279E-014
  0.55111111111111111         -2.4234962452650277E-013
  0.56111111111111112         -3.6806977821504661E-013
  0.57111111111111112         -4.1224516205209949E-013
  0.58111111111111113         -3.1371926540943451E-013
  0.59111111111111114         -3.7483586384518680E-014
  0.60111111111111115          3.9854445156410623E-013
  0.61111111111111116          9.0479712481009167E-013
  0.62111111111111117          1.3203116985133212E-012
  0.63111111111111118          1.4404455276131878E-012
  0.64111111111111119          1.0738390428602362E-012
  0.65111111111111120          1.2026280850081089E-013
  0.66111111111111120         -1.3502945506518871E-012
  0.67111111111111121         -3.0456605119855151E-012
  0.68111111111111122         -4.4570211236993895E-012
  0.69111111111111123         -4.9443552550820780E-012
  0.70111111111111124         -3.9050789511774209E-012
  0.71111111111111125         -1.0015635239571385E-012
  0.72111111111111126          3.6067880453127810E-012
  0.73111111111111127          9.1040881430859422E-012
  0.74111111111111128          1.4013920232591737E-011
  0.75111111111111128          1.6413578829421738E-011
  0.76111111111111129          1.4381651251837990E-011
  0.77111111111111130          6.6239453158645212E-012
  0.78111111111111109         -6.8547940761110038E-012
  0.79111111111111110         -2.4228639927681428E-011
  0.80111111111111111         -4.1696424091242079E-011
  0.81111111111111112         -5.3878200512169627E-011
  0.82111111111111112         -5.4840298968628076E-011
  0.83111111111111113         -3.9664618811663388E-011
  0.84111111111111114         -6.2878474128835737E-012
  0.85111111111111115          4.2834239627476123E-011
  0.86111111111111116          9.9777838769021798E-011
  0.87111111111111117          1.5142913312171657E-010
  0.88111111111111118          1.8132048640318033E-010
  0.89111111111111119          1.7303070087848482E-010
  0.90111111111111120          1.1473431232866815E-010
  0.91111111111111120          4.0549573247783410E-012
  0.92111111111111121         -1.4794890312863629E-010
  0.93111111111111122         -3.1495292485139714E-010
  0.94111111111111123         -4.5679537929999015E-010
  0.95111111111111124         -5.2477061585065599E-010
  0.96111111111111125         -4.7061932129111028E-010
  0.97111111111111126         -2.5813468029767250E-010
  0.98111111111111127          1.2455184106308081E-010
  0.99111111111111128          6.5451888353607046E-010
   1.0011111111111113          1.2680285710331418E-009
   1.0111111111111113          1.8609708218875198E-009
   1.0211111111111113          2.2965755963610945E-009
   1.0311111111111111          2.4193593795018842E-009
   1.0411111111111111          2.0720345439428911E-009
   1.0511111111111111          1.1097404106763520E-009
   1.0611111111111111         -5.9620947068239616E-010
   1.0711111111111111         -3.1746574258306737E-009
   1.0811111111111111         -6.8017746990278738E-009
   1.0911111111111111         -1.1790988629911681E-008
   1.1011111111111112         -1.8737795315360017E-008
   1.1111111111111112         -2.8733197154906520E-008
   1.1211111111111114         -4.3661511739401249E-008
   1.1311111111111112         -6.6602751758182421E-008
   1.1411111111111114         -1.0236777825411991E-007
   1.1511111111111112         -1.5820630494545185E-007
   1.1611111111111110         -2.4474502424709499E-007
   1.1711111111111112         -3.7724083767898264E-007
   1.1811111111111110         -5.7726259683477110E-007
   1.1911111111111112         -8.7495919842695002E-007
   1.2011111111111110         -1.3121257325110491E-006
   1.2111111111111112         -1.9463363969407510E-006
   1.2211111111111110         -2.8564973035827279E-006
   1.2311111111111113         -4.1502526073600166E-006
   1.2411111111111111         -5.9737553783634212E-006
   1.2511111111111113         -8.5244773799786344E-006
   1.2611111111111111         -1.2067771422152873E-005
   1.2711111111111113         -1.6958065316430293E-005
   1.2811111111111111         -2.3665648768655956E-005
   1.2911111111111113         -3.2810203265398741E-005
   1.3011111111111111         -4.5202152250567451E-005
   1.3111111111111113         -6.1893209931440651E-005
   1.3211111111111111         -8.4237275586929172E-005
   1.3311111111111114         -1.1396296031307429E-004
   1.3411111111111111         -1.5325887943618000E-004
   1.3511111111111114         -2.0487232541199774E-004
   1.3611111111111112         -2.7222186326980591E-004
   1.3711111111111114         -3.5952369216829538E-004
   1.3811111111111112         -4.7193022328428924E-004
   1.3911111111111114         -6.1567913508042693E-004
   1.4011111111111112         -7.9824903514236212E-004
   1.4111111111111114         -1.0285157477483153E-003
   1.4211111111111112         -1.3169029261916876E-003
   1.4311111111111110         -1.6755146207287908E-003
   1.4411111111111112         -2.1182403434067965E-003
   1.4511111111111110         -2.6608153712004423E-003
   1.4611111111111112         -3.3208206295967102E-003
   1.4711111111111110         -4.1176010854542255E-003
   1.4811111111111113         -5.0720833241939545E-003
   1.4911111111111111         -6.2064663507044315E-003
   1.5011111111111113         -7.5437719933688641E-003
   1.5111111111111111         -9.1072292998433113E-003
   1.5211111111111113         -1.0919478721916676E-002
   1.5311111111111111         -1.3001590967178345E-002
   1.5411111111111113         -1.5371893532574177E-002
   1.5511111111111111         -1.8044615164399147E-002
   1.5611111111111113         -2.1028375253081322E-002
   1.5711111111111111         -2.4324538186192513E-002
   1.5811111111111114         -2.7925493195652962E-002
   1.5911111111111111         -3.1812924891710281E-002
   1.6011111111111114         -3.5956151783466339E-002
   1.6111111111111112         -4.0310617536306381E-002
   1.6211111111111114         -4.4816646724939346E-002
   1.6311111111111112         -4.9398556351661682E-002
   1.6411111111111114         -5.3964287042617798E-002
   1.6511111111111112         -5.8405589312314987E-002
   1.6611111111111114         -6.2598928809165955E-002
   1.6711111111111112         -6.6407114267349243E-002
   1.6811111111111110         -6.9681771099567413E-002
   1.6911111111111112         -7.2266645729541779E-002
   1.7011111111111110         -7.4001707136631012E-002
   1.7111111111111112         -7.4727982282638550E-002
   1.7211111111111110         -7.4293084442615509E-002
   1.7311111111111113         -7.2557158768177032E-002
   1.7411111111111111         -6.9399133324623108E-002
   1.7511111111111113         -6.4722992479801178E-002
   1.7611111111111111         -5.8463834226131439E-002
   1.7711111111111113         -5.0593350082635880E-002
   1.7811111111111111         -4.1124526411294937E-002
   1.7911111111111113         -3.0115226283669472E-002
   1.8011111111111111         -1.7670396715402603E-002
   1.8111111111111113         -3.9426935836672783E-003
   1.8211111111111111          1.0868631303310394E-002
   1.8311111111111114          2.6520689949393272E-002
   1.8411111111111111          4.2731761932373047E-002
   1.8511111111111114          5.9187859296798706E-002
   1.8611111111111112          7.5550898909568787E-002
   1.8711111111111114          9.1468170285224915E-002
   1.8811111111111112         0.10658288747072220     
   1.8911111111111114         0.12054527550935745     
   1.9011111111111112         0.13302388787269592     
   1.9111111111111114         0.14371660351753235     
   1.9211111111111112         0.15236091613769531     
   1.9311111111111110         0.15874296426773071     
   1.9411111111111112         0.16270497441291809     
   1.9511111111111110         0.16415075957775116     
   1.9611111111111112         0.16304904222488403     
   1.9711111111111110         0.15943446755409241     
   1.9811111111111113         0.15340609848499298     
   1.9911111111111111         0.14512379467487335     
   2.0011111111111113         0.13480231165885925     
   2.0111111111111111         0.12270362675189972     
   2.0211111111111113         0.10912773758172989     
   2.0311111111111111          9.4402305781841278E-002
   2.0411111111111113          7.8871630132198334E-002
   2.0511111111111111          6.2885485589504242E-002
   2.0611111111111113          4.6788245439529419E-002
   2.0711111111111111          3.0908701941370964E-002
   2.0811111111111114          1.5551008284091949E-002
   2.0911111111111111          9.8699156660586596E-004
   2.1011111111111114         -1.2549916282296181E-002
   2.1111111111111112         -2.4868987500667572E-002
   2.1211111111111114         -3.5824701189994812E-002
   2.1311111111111112         -4.5317444950342178E-002
   2.1411111111111114         -5.3292546421289444E-002
   2.1511111111111112         -5.9737775474786758E-002
   2.1611111111111114         -6.4679622650146484E-002
   2.1711111111111112         -6.8178564310073853E-002
   2.1811111111111114         -7.0323646068572998E-002
   2.1911111111111112         -7.1226671338081360E-002
   2.2011111111111110         -7.1016214787960052E-002
   2.2111111111111112         -6.9831810891628265E-002
   2.2211111111111110         -6.7818410694599152E-002
   2.2311111111111113         -6.5121375024318695E-002
   2.2411111111111111         -6.1882149428129196E-002
   2.2511111111111113         -5.8234676718711853E-002
   2.2611111111111111         -5.4302614182233810E-002
   2.2711111111111113         -5.0197347998619080E-002
   2.2811111111111111         -4.6016778796911240E-002
   2.2911111111111113         -4.1844777762889862E-002
   2.3011111111111111         -3.7751235067844391E-002
   2.3111111111111113         -3.3792622387409210E-002
   2.3211111111111111         -3.0012976378202438E-002
   2.3311111111111114         -2.6445142924785614E-002
   2.3411111111111111         -2.3112205788493156E-002
   2.3511111111111114         -2.0028969272971153E-002
   2.3611111111111112         -1.7203386873006821E-002
   2.3711111111111114         -1.4637878164649010E-002
   2.3811111111111112         -1.2330473400652409E-002
   2.3911111111111114         -1.0275772772729397E-002
   2.4011111111111112         -8.4656998515129089E-003
   2.4111111111111114         -6.8900757469236851E-003
   2.4211111111111112         -5.5370111949741840E-003
   2.4311111111111114         -4.3931631371378899E-003
   2.4411111111111112         -3.4438890870660543E-003
   2.4511111111111110         -2.6733572594821453E-003
   2.4611111111111112         -2.0646615885198116E-003
   2.4711111111111110         -1.5999879688024521E-003
   2.4811111111111113         -1.2608587276190519E-003
   2.4911111111111111         -1.0284601012244821E-003
   2.5011111111111113         -8.8403816334903240E-004
   2.5111111111111111         -8.0933800200000405E-004
   2.5211111111111113         -7.8705750638619065E-004
   2.5311111111111111         -8.0128572881221771E-004
   2.5411111111111113         -8.3789817290380597E-004
   2.5511111111111111         -8.8487938046455383E-004
   2.5611111111111113         -9.3254476087167859E-004
   2.5711111111111111         -9.7363843815401196E-004
   2.5811111111111114         -1.0032942518591881E-003
   2.5911111111111111         -1.0188645683228970E-003
   2.6011111111111114         -1.0196372168138623E-003
   2.6111111111111112         -1.0064732050523162E-003
   2.6211111111111114         -9.8140293266624212E-004
   2.6311111111111112         -9.4721344066783786E-004
   2.6411111111111114         -9.0705248294398189E-004
   2.6511111111111112         -8.6406897753477097E-004
   2.6611111111111114         -8.2110514631494880E-004
   2.6711111111111112         -7.8045559348538518E-004
   2.6811111111111114         -7.4370618676766753E-004
   2.6911111111111112         -7.1166147245094180E-004
   2.7011111111111110         -6.8435812136158347E-004
   2.7111111111111112         -6.6115177469328046E-004
   2.7211111111111110         -6.4085668418556452E-004
   2.7311111111111113         -6.2191300094127655E-004
   2.7411111111111111         -6.0256250435486436E-004
   2.7511111111111113         -5.8101693866774440E-004
   2.7611111111111111         -5.5561074987053871E-004
   2.7711111111111113         -5.2492943359538913E-004
   2.7811111111111111         -4.8790604341775179E-004
   2.7911111111111113         -4.4387651723809540E-004
   2.8011111111111111         -3.9258951437659562E-004
   2.8111111111111113         -3.3417335362173617E-004
   2.8211111111111111         -2.6907195569947362E-004
   2.8311111111111114         -1.9796904234681278E-004
   2.8411111111111111         -1.2171930575277656E-004
   2.8511111111111114         -4.1300481825601310E-005
   2.8611111111111112          4.2209714592900127E-005
   2.8711111111111114          1.2763535778503865E-004
   2.8811111111111112          2.1369072783272713E-004
   2.8911111111111114          2.9896284104324877E-004
   2.9011111111111112          3.8189379847608507E-004
   2.9111111111111114          4.6076742000877857E-004
   2.9211111111111112          5.3370720706880093E-004
   2.9311111111111114          5.9869448887184262E-004
   2.9411111111111112          6.5361696761101484E-004
   2.9511111111111110          6.9635396357625723E-004
   2.9611111111111112          7.2489702142775059E-004
   2.9711111111111110          7.3749409057199955E-004
   2.9811111111111113          7.3280086508020759E-004
   2.9911111111111111          7.1002170443534851E-004
   3.0011111111111113          6.6902692196890712E-004
   3.0111111111111111          6.1043963069096208E-004
   3.0211111111111113          5.3568935254588723E-004
   3.0311111111111111          4.4703009189106524E-004
   3.0411111111111113          3.4751612110994756E-004
   3.0511111111111111          2.4092718376778066E-004
   3.0611111111111113          1.3163570838514715E-004
   3.0711111111111111          2.4415288862655871E-005
   3.0811111111111114         -7.5800540798809379E-005
   3.0911111111111111         -1.6419168969150633E-004
   3.1011111111111114         -2.3633486125618219E-004
   3.1111111111111112         -2.8847408248111606E-004
   3.1211111111111109         -3.1775768729858100E-004
   3.1311111111111116         -3.2242320594377816E-004
   3.1411111111111114         -3.0191097175702453E-004
   3.1511111111111112         -2.5688781170174479E-004
   3.1611111111111110         -1.8916599219664931E-004
   3.1711111111111117         -1.0151250899070874E-004
   3.1811111111111114          2.6395352961117169E-006
   3.1911111111111112          1.1954714864259586E-004
   3.2011111111111110          2.4553577532060444E-004
   3.2111111111111108          3.7734836223535240E-004
   3.2211111111111115          5.1241810433566570E-004
   3.2311111111111113          6.4903014572337270E-004
   3.2411111111111111          7.8635342651978135E-004
   3.2511111111111108          9.2434010002762079E-004
   3.2611111111111115          1.0635026264935732E-003
   3.2711111111111113          1.2045917101204395E-003
   3.2811111111111111          1.3482107315212488E-003
   3.2911111111111109          1.4944133581593633E-003
   3.3011111111111116          1.6423418419435620E-003
   3.3111111111111113          1.7899605445563793E-003
   3.3211111111111111          1.9339316058903933E-003
   3.3311111111111109          2.0696590654551983E-003
   3.3411111111111116          2.1914991084486246E-003
   3.3511111111111114          2.2931147832423449E-003
   3.3611111111111112          2.3679339792579412E-003
   3.3711111111111109          2.4096651468425989E-003
   3.3811111111111116          2.4128246586769819E-003
   3.3911111111111114          2.3732359986752272E-003
   3.4011111111111112          2.2884616628289223E-003
   3.4111111111111110          2.1581365726888180E-003
   3.4211111111111117          1.9841738976538181E-003
   3.4311111111111114          1.7708285013213754E-003
   3.4411111111111112          1.5246163820847869E-003
   3.4511111111111110          1.2541043106466532E-003
   3.4611111111111117          9.6959742950275540E-004
   3.4711111111111115          6.8275432568043470E-004
   3.4811111111111113          4.0615780744701624E-004
   3.4911111111111111          1.5285926929209381E-004
   3.5011111111111108         -6.4094412664417177E-005
   3.5111111111111115         -2.3214471002575010E-004
   3.5211111111111113         -3.3970817457884550E-004
   3.5311111111111111         -3.7665435229428113E-004
   3.5411111111111109         -3.3476037788204849E-004
   3.5511111111111116         -2.0813051378354430E-004
   3.5611111111111113          6.4266614572261460E-006
   3.5711111111111111          3.0906690517440438E-004
   3.5811111111111109          6.9662911118939519E-004
   3.5911111111111116          1.1624153703451157E-003
   3.6011111111111114          1.6960537759587169E-003
   3.6111111111111112          2.2834721021354198E-003
   3.6211111111111109          2.9070102609694004E-003
   3.6311111111111116          3.5456954501569271E-003
   3.6411111111111114          4.1756839491426945E-003
   3.6511111111111112          4.7708665952086449E-003
   3.6611111111111110          5.3036259487271309E-003
   3.6711111111111117          5.7457187213003635E-003
   3.6811111111111114          6.0692639090120792E-003
   3.6911111111111112          6.2478072941303253E-003
   3.7011111111111110          6.2574185431003571E-003
   3.7111111111111117          6.0777757316827774E-003
   3.7211111111111115          5.6931758299469948E-003
   3.7311111111111113          5.0934208557009697E-003
   3.7411111111111111          4.2745280079543591E-003
   3.7511111111111108          3.2392325811088085E-003
   3.7611111111111115          1.9972689915448427E-003
   3.7711111111111113          5.6541507365182042E-004
   3.7811111111111111         -1.0327011113986373E-003
   3.7911111111111109         -2.7670385316014290E-003
   3.8011111111111116         -4.6018250286579132E-003
   3.8111111111111113         -6.4964820630848408E-003
   3.8211111111111111         -8.4067666903138161E-003
   3.8311111111111109         -1.0286101140081882E-002
   3.8411111111111116         -1.2087042443454266E-002
   3.8511111111111114         -1.3762828893959522E-002
   3.8611111111111112         -1.5268947929143906E-002
   3.8711111111111109         -1.6564656049013138E-002
   3.8811111111111116         -1.7614386975765228E-002
   3.8911111111111114         -1.8388986587524414E-002
   3.9011111111111112         -1.8866697326302528E-002
   3.9111111111111110         -1.9033843651413918E-002
   3.9211111111111117         -1.8885195255279541E-002
   3.9311111111111114         -1.8423989415168762E-002
   3.9411111111111112         -1.7661623656749725E-002
   3.9511111111111110         -1.6617096960544586E-002
   3.9611111111111117         -1.5316233038902283E-002
   3.9711111111111115         -1.3790788128972054E-002
   3.9811111111111113         -1.2077483348548412E-002
   3.9911111111111111         -1.0217009112238884E-002
   4.0011111111111113         -8.2530416548252106E-003
   4.0111111111111111         -6.2312735244631767E-003
   4.0211111111111109         -4.1984696872532368E-003
   4.0311111111111106         -2.2015408612787724E-003
   4.0411111111111104         -2.8661865508183837E-004
   4.0511111111111120          1.5018815174698830E-003
   4.0611111111111118          3.1222153920680285E-003
   4.0711111111111116          4.5362650416791439E-003
   4.0811111111111114          5.7104462757706642E-003
   4.0911111111111111          6.6164932213723660E-003
   4.1011111111111109          7.2320122271776199E-003
   4.1111111111111107          7.5407000258564949E-003
   4.1211111111111105          7.5321267358958721E-003
   4.1311111111111121          7.2010150179266930E-003
   4.1411111111111119          6.5459841862320900E-003
   4.1511111111111116          5.5677755735814571E-003
   4.1611111111111114          4.2670154944062233E-003
   4.1711111111111112          2.6416147593408823E-003
   4.1811111111111110          6.8393495166674256E-004
   4.1911111111111108         -1.6221170080825686E-003
   4.2011111111111106         -4.3039061129093170E-003
   4.2111111111111121         -7.4026216752827168E-003
   4.2211111111111119         -1.0975424200296402E-002
   4.2311111111111117         -1.5097062103450298E-002
   4.2411111111111115         -1.9860891625285149E-002
   4.2511111111111113         -2.5379247963428497E-002
   4.2611111111111111         -3.1783148646354675E-002
   4.2711111111111109         -3.9221342653036118E-002
   4.2811111111111106         -4.7858688980340958E-002
   4.2911111111111104         -5.7873874902725220E-002
   4.3011111111111120         -6.9456458091735840E-002
   4.3111111111111118         -8.2803264260292053E-002
   4.3211111111111116         -9.8114073276519775E-002
   4.3311111111111114        -0.11558660119771957     
   4.3411111111111111        -0.13541083037853241     
   4.3511111111111109        -0.15776267647743225     
   4.3611111111111107        -0.18279699981212616     
   4.3711111111111105        -0.21063998341560364     
   4.3811111111111121        -0.24138103425502777     
   4.3911111111111119        -0.27506431937217712     
   4.4011111111111116        -0.31167989969253540     
   4.4111111111111114        -0.35115498304367065     
   4.4211111111111112        -0.39334520697593689     
   4.4311111111111110        -0.43802618980407715     
   4.4411111111111108        -0.48488593101501465     
   4.4511111111111106        -0.53351771831512451     
   4.4611111111111121        -0.58341467380523682     
   4.4711111111111119        -0.63396584987640381     
   4.4811111111111117        -0.68445414304733276     
   4.4911111111111115        -0.73405712842941284     
   4.5011111111111113        -0.78185021877288818     
   4.5111111111111111        -0.82681328058242798     
   4.5211111111111109        -0.86784082651138306     
   4.5311111111111106        -0.90375602245330811     
   4.5411111111111104        -0.93332862854003906     
   4.5511111111111120        -0.95529681444168091     