 -0.88888888888888884          0.0000000000000000     
 -0.87888888888888883          2.0178880409325980E-034
 -0.86888888888888882          1.4972905372977439E-030
 -0.85888888888888881          6.2734756674123835E-027
 -0.84888888888888880          4.0119160686583218E-026
 -0.83888888888888880          1.6798558290562143E-024
 -0.82888888888888879          1.0012330683009097E-023
 -0.81888888888888878          2.6913422353018699E-023
 -0.80888888888888888          3.2324159348500822E-023
 -0.79888888888888887         -1.1558416015708137E-023
 -0.78888888888888886         -6.9837578260177537E-023
 -0.77888888888888885          1.0902279853385293E-022
 -0.76888888888888884          9.0620160460080889E-022
 -0.75888888888888884          2.1192072448956634E-021
 -0.74888888888888883          1.8176890064069310E-021
 -0.73888888888888882         -3.6413088331823819E-021
 -0.72888888888888881         -1.5975576661545306E-020
 -0.71888888888888880         -2.7452980694944193E-020
 -0.70888888888888890         -1.5642500755673465E-020
 -0.69888888888888889          4.6838200688194480E-020
 -0.68888888888888888          1.5819525484695482E-019
 -0.67888888888888888          2.4154030608187572E-019
 -0.66888888888888887          1.3405659945840308E-019
 -0.65888888888888886         -3.2556805274079135E-019
 -0.64888888888888885         -1.0919402403207849E-018
 -0.63888888888888884         -1.6889934161972724E-018
 -0.62888888888888883         -1.2027366372764705E-018
 -0.61888888888888882          1.2526952443473763E-018
 -0.60888888888888881          5.5695245239665179E-018
 -0.59888888888888880          9.6373580669440550E-018
 -0.58888888888888880          9.2311453845509017E-018
 -0.57888888888888879         -2.3559616035067552E-019
 -0.56888888888888878         -1.9953715611508388E-017
 -0.55888888888888877         -4.3448796566148201E-017
 -0.54888888888888876         -5.4934401203516454E-017
 -0.53888888888888875         -3.3743545996067631E-017
 -0.52888888888888885          3.3868853932702065E-017
 -0.51888888888888884          1.3887130316524876E-016
 -0.50888888888888884          2.3805437466108484E-016
 -0.49888888888888883          2.5801714128285578E-016
 -0.48888888888888882          1.2195863601209154E-016
 -0.47888888888888881         -2.0359429503992172E-016
 -0.46888888888888886         -6.5893223477841946E-016
 -0.45888888888888885         -1.0658831791769989E-015
 -0.44888888888888884         -1.1550265147328175E-015
 -0.43888888888888883         -6.5835450536883282E-016
 -0.42888888888888882          5.4777911866511222E-016
 -0.41888888888888881          2.2965252780232735E-015
 -0.40888888888888886          4.0502146687220516E-015
 -0.39888888888888885          4.9536066471878113E-015
 -0.38888888888888884          4.0575487034958529E-015
 -0.37888888888888883          6.9288142118349022E-016
 -0.36888888888888882         -5.0945707173028192E-015
 -0.35888888888888881         -1.2196334233890473E-014
 -0.34888888888888880         -1.8354937998655250E-014
 -0.33888888888888880         -2.0484929399468277E-014
 -0.32888888888888879         -1.5457470373125837E-014
 -0.31888888888888878         -1.2620655388817514E-015
 -0.30888888888888888          2.1706217078203312E-014
 -0.29888888888888887          4.9625010860570445E-014
 -0.28888888888888886          7.4937817995217315E-014
 -0.27888888888888885          8.7145643078070240E-014
 -0.26888888888888884          7.4879155881422271E-014
 -0.25888888888888884          2.9126586532186513E-014
 -0.24888888888888883         -5.2852965331130070E-014
 -0.23888888888888882         -1.6370790085953185E-013
 -0.22888888888888881         -2.8325172068965898E-013
 -0.21888888888888880         -3.7788468101179751E-013
 -0.20888888888888879         -4.0326056838409230E-013
 -0.19888888888888878         -3.1117279976691781E-013
 -0.18888888888888877         -6.1336413649960148E-014
 -0.17888888888888888          3.6195189640625403E-013
 -0.16888888888888887          9.2968276306504283E-013
 -0.15888888888888886          1.5482493759266802E-012
 -0.14888888888888885          2.0466471399582797E-012
 -0.13888888888888884          2.1807744412377650E-012
 -0.12888888888888883          1.6665143657418335E-012
 -0.11888888888888882          2.5119901818360102E-013
 -0.10888888888888881         -2.1750108224888320E-012
  -9.8888888888888804E-002    -5.4414411344849700E-012
  -8.8888888888888795E-002    -8.9673104011755989E-012
  -7.8888888888888786E-002    -1.1695928947563772E-011
  -6.8888888888888777E-002    -1.2161426379830864E-011
  -5.8888888888888768E-002    -8.7504795076576158E-012
  -4.8888888888888871E-002    -1.8624817942243521E-013
  -3.8888888888888862E-002     1.3806112503234047E-011
  -2.8888888888888853E-002     3.1785990506350004E-011
  -1.8888888888888844E-002     5.0066173429286209E-011
  -8.8888888888888351E-003     6.2660175659257078E-011
   1.1111111111111738E-003     6.1998267630869464E-011
   1.1111111111111183E-002     4.0589580307948125E-011
   2.1111111111111192E-002    -6.4268898362918048E-012
   3.1111111111111200E-002    -7.8233294842355861E-011
   4.1111111111111209E-002    -1.6554406456759096E-010
   5.1111111111111218E-002    -2.4912624740913714E-010
   6.1111111111111227E-002    -3.0076147128355046E-010
   7.1111111111111125E-002    -2.8753596725827890E-010
   8.1111111111111134E-002    -1.7970207266682081E-010
   9.1111111111111143E-002     3.8650006806140169E-011
  0.10111111111111115          3.5807948273181012E-010
  0.11111111111111116          7.3452877114021931E-010
  0.12111111111111117          1.0860432553272403E-009
  0.13111111111111118          1.2990211128993678E-009
  0.14111111111111119          1.2462220144726643E-009
  0.15111111111111120          8.1629175641140250E-010
  0.16111111111111120         -4.8782821532311615E-011
  0.17111111111111121         -1.3154557443328940E-009
  0.18111111111111122         -2.8297011400724159E-009
  0.19111111111111123         -4.3086263445957229E-009
  0.20111111111111124         -5.3624145124331335E-009
  0.21111111111111125         -5.5518802888343544E-009
  0.22111111111111126         -4.4795505083072840E-009
  0.23111111111111127         -1.9030346187776104E-009
  0.24111111111111128          2.1497312818752334E-009
  0.25111111111111128          7.2905632642061846E-009
  0.26111111111111129          1.2735761778515098E-008
  0.27111111111111108          1.7350508585423086E-008
  0.28111111111111109          1.9786543958844049E-008
  0.29111111111111110          1.8709277682660286E-008
  0.30111111111111111          1.3089657358023032E-008
  0.31111111111111112          2.5161872585499623E-009
  0.32111111111111112         -1.2531933712978116E-008
  0.33111111111111113         -3.0513657378605785E-008
  0.34111111111111114         -4.8811035213702780E-008
  0.35111111111111115         -6.3901119062848011E-008
  0.36111111111111116         -7.1710857696416497E-008
  0.37111111111111117         -6.8109720530173945E-008
  0.38111111111111118         -4.9454410344651478E-008
  0.39111111111111119         -1.3068460980036889E-008
  0.40111111111111120          4.2476422379422729E-008
  0.41111111111111120          1.1740701921780783E-007
  0.42111111111111121          2.1122917814864195E-007
  0.43111111111111122          3.2371056590818625E-007
  0.44111111111111123          4.5638935830538685E-007
  0.45111111111111124          6.1459144262698828E-007
  0.46111111111111125          8.0991037521016551E-007
  0.47111111111111126          1.0630996030158713E-006
  0.48111111111111127          1.4073447118789773E-006
  0.49111111111111128          1.8919288322649663E-006
  0.50111111111111128          2.5863669179670978E-006
  0.51111111111111129          3.5851578559231712E-006
  0.52111111111111108          5.0133703553001396E-006
  0.53111111111111109          7.0333535404643044E-006
  0.54111111111111110          9.8529144452186301E-006
  0.55111111111111111          1.3735328138864134E-005
  0.56111111111111112          1.9011609765584581E-005
  0.57111111111111112          2.6095491193700582E-005
  0.58111111111111113          3.5501558159012347E-005
  0.59111111111111114          4.7866982640698552E-005
  0.60111111111111115          6.3977298850659281E-005
  0.61111111111111116          8.4796505689155310E-005
  0.62111111111111117          1.1150162026751786E-004
  0.63111111111111118          1.4552140783052891E-004
  0.64111111111111119          1.8857845861930400E-004
  0.65111111111111120          2.4273339658975601E-004
  0.66111111111111120          3.1042910995893180E-004
  0.67111111111111121          3.9453196222893894E-004
  0.68111111111111122          4.9836636753752828E-004
  0.69111111111111123          6.2573835020884871E-004
  0.70111111111111124          7.8094314085319638E-004
  0.71111111111111125          9.6875132294371724E-004
  0.72111111111111126          1.1943685822188854E-003
  0.73111111111111127          1.4633631799370050E-003
  0.74111111111111128          1.7815573373809457E-003
  0.75111111111111128          2.1548781078308821E-003
  0.76111111111111129          2.5891656987369061E-003
  0.77111111111111130          3.0899376142770052E-003
  0.78111111111111109          3.6621072795242071E-003
  0.79111111111111110          4.3096621520817280E-003
  0.80111111111111111          5.0353026017546654E-003
  0.81111111111111112          5.8400481939315796E-003
  0.82111111111111112          6.7228255793452263E-003
  0.83111111111111113          7.6800477690994740E-003
  0.84111111111111114          8.7052015587687492E-003
  0.85111111111111115          9.7884694114327431E-003
  0.86111111111111116          1.0916401632130146E-002
  0.87111111111111117          1.2071670964360237E-002
  0.88111111111111118          1.3232932426035404E-002
  0.89111111111111119          1.4374823309481144E-002
  0.90111111111111120          1.5468115918338299E-002
  0.91111111111111120          1.6480052843689919E-002
  0.92111111111111121          1.7374869436025620E-002
  0.93111111111111122          1.8114529550075531E-002
  0.94111111111111123          1.8659640103578568E-002
  0.95111111111111124          1.8970565870404243E-002
  0.96111111111111125          1.9008692353963852E-002
  0.97111111111111126          1.8737826496362686E-002
  0.98111111111111127          1.8125671893358231E-002
  0.99111111111111128          1.7145344987511635E-002
   1.0011111111111113          1.5776850283145905E-002
   1.0111111111111113          1.4008467085659504E-002
   1.0211111111111113          1.1837968602776527E-002
   1.0311111111111111          9.2736044898629189E-003
   1.0411111111111111          6.3347923569381237E-003
   1.0511111111111111          3.0524502508342266E-003
   1.0611111111111111         -5.3106347331777215E-004
   1.0711111111111111         -4.3624341487884521E-003
   1.0811111111111111         -8.3783101290464401E-003
   1.0911111111111111         -1.2506638653576374E-002
   1.1011111111111112         -1.6668388620018959E-002
   1.1111111111111112         -2.0779605954885483E-002
   1.1211111111111114         -2.4753725156188011E-002
   1.1311111111111112         -2.8504062443971634E-002
   1.1411111111111114         -3.1946375966072083E-002
   1.1511111111111112         -3.5001419484615326E-002
   1.1611111111111110         -3.7597376853227615E-002
   1.1711111111111112         -3.9672087877988815E-002
   1.1811111111111110         -4.1174989193677902E-002
   1.1911111111111112         -4.2068682610988617E-002
   1.2011111111111110         -4.2330123484134674E-002
   1.2111111111111112         -4.1951317340135574E-002
   1.2211111111111110         -4.0939591825008392E-002
   1.2311111111111113         -3.9317350834608078E-002
   1.2411111111111111         -3.7121392786502838E-002
   1.2511111111111113         -3.4401785582304001E-002
   1.2611111111111111         -3.1220337375998497E-002
   1.2711111111111113         -2.7648739516735077E-002
   1.2811111111111111         -2.3766448721289635E-002
   1.2911111111111113         -1.9658368080854416E-002
   1.3011111111111111         -1.5412438660860062E-002
   1.3111111111111113         -1.1117191053926945E-002
   1.3211111111111111         -6.8593602627515793E-003
   1.3311111111111114         -2.7216265443712473E-003
   1.3411111111111111          1.2194567825645208E-003
   1.3511111111111114          4.8952926881611347E-003
   1.3611111111111112          8.2467896863818169E-003
   1.3711111111111114          1.1225599795579910E-002
   1.3811111111111112          1.3795020058751106E-002
   1.3911111111111114          1.5930548310279846E-002
   1.4011111111111112          1.7620071768760681E-002
   1.4111111111111114          1.8863700330257416E-002
   1.4211111111111112          1.9673231989145279E-002
   1.4311111111111110          2.0071275532245636E-002
   1.4411111111111112          2.0090052857995033E-002
   1.4511111111111110          1.9769923761487007E-002
   1.4611111111111112          1.9157683476805687E-002
   1.4711111111111110          1.8304698169231415E-002
   1.4811111111111113          1.7264965921640396E-002
   1.4911111111111111          1.6093162819743156E-002
   1.5011111111111113          1.4842768199741840E-002
   1.5111111111111111          1.3564340770244598E-002
   1.5211111111111113          1.2303986586630344E-002
   1.5311111111111111          1.1102080345153809E-002
   1.5411111111111113          9.9922614172101021E-003
   1.5511111111111111          9.0007195249199867E-003
   1.5611111111111113          8.1457737833261490E-003
   1.5711111111111111          7.4377441778779030E-003
   1.5811111111111114          6.8791015073657036E-003
   1.5911111111111111          6.4648934639990330E-003
   1.6011111111111114          6.1834231019020081E-003
   1.6111111111111112          6.0171592049300671E-003
   1.6211111111111114          5.9438506141304970E-003
   1.6311111111111112          5.9377998113632202E-003
   1.6411111111111114          5.9712426736950874E-003
   1.6511111111111112          6.0157650150358677E-003
   1.6611111111111114          6.0436897911131382E-003
   1.6711111111111112          6.0293599963188171E-003
   1.6811111111111110          5.9502488002181053E-003
   1.6911111111111112          5.7878508232533932E-003
   1.7011111111111110          5.5283163674175739E-003
   1.7111111111111112          5.1628258079290390E-003
   1.7211111111111110          4.6877074055373669E-003
   1.7311111111111113          4.1043334640562534E-003
   1.7411111111111111          3.4188278950750828E-003
   1.7511111111111113          2.6416277978569269E-003
   1.7611111111111111          1.7869301373139024E-003
   1.7711111111111113          8.7205739691853523E-004
   1.7811111111111111         -8.3245322457514703E-005
   1.7911111111111113         -1.0575653286650777E-003
   1.8011111111111111         -2.0286201033741236E-003
   1.8111111111111113         -2.9740815516561270E-003
   1.8211111111111111         -3.8724020123481750E-003
   1.8311111111111114         -4.7036097384989262E-003
   1.8411111111111111         -5.4500289261341095E-003
   1.8511111111111114         -6.0968799516558647E-003
   1.8611111111111112         -6.6327196545898914E-003
   1.8711111111111114         -7.0496867410838604E-003
   1.8811111111111112         -7.3435525409877300E-003
   1.8911111111111114         -7.5135803781449795E-003
   1.9011111111111112         -7.5622308067977428E-003
   1.9111111111111114         -7.4947625398635864E-003
   1.9211111111111112         -7.3187802918255329E-003
   1.9311111111111110         -7.0437821559607983E-003
   1.9411111111111112         -6.6807442344725132E-003
   1.9511111111111110         -6.2417569570243359E-003
   1.9611111111111112         -5.7397116906940937E-003
   1.9711111111111110         -5.1880185492336750E-003
   1.9811111111111113         -4.6003246679902077E-003
   1.9911111111111111         -3.9902101270854473E-003
   2.0011111111111113         -3.3708435948938131E-003
   2.0111111111111111         -2.7546016499400139E-003
   2.0211111111111113         -2.1526729688048363E-003
   2.0311111111111111         -1.5746871940791607E-003
   2.0411111111111113         -1.0284123709425330E-003
   2.0511111111111111         -5.1956856623291969E-004
   2.0611111111111113         -5.1786122639896348E-005
   2.0711111111111111          3.7327990867197514E-004
   2.0811111111111114          7.5569283217191696E-004
   2.0911111111111111          1.0968719143420458E-003
   2.1011111111111114          1.3991751475259662E-003
   2.1111111111111112          1.6654831124469638E-003
   2.1211111111111114          1.8988332012668252E-003
   2.1311111111111112          2.1021361462771893E-003
   2.1411111111111114          2.2779875434935093E-003
   2.1511111111111112          2.4285649415105581E-003
   2.1611111111111114          2.5555847678333521E-003
   2.1711111111111112          2.6602912694215775E-003
   2.1811111111111114          2.7434474322944880E-003
   2.1911111111111112          2.8053154237568378E-003
   2.2011111111111110          2.8456288855522871E-003
   2.2111111111111112          2.8635752387344837E-003
   2.2211111111111110          2.8578185010701418E-003
   2.2311111111111113          2.8265919536352158E-003
   2.2411111111111111          2.7678827755153179E-003
   2.2511111111111113          2.6797140017151833E-003
   2.2611111111111111          2.5605002883821726E-003
   2.2711111111111113          2.4094390682876110E-003
   2.2811111111111111          2.2268774919211864E-003
   2.2911111111111113          2.0145946182310581E-003
   2.3011111111111111          1.7759465845301747E-003
   2.3111111111111113          1.5158413443714380E-003
   2.3211111111111111          1.2405416928231716E-003
   2.3311111111111114          9.5732358749955893E-004
   2.3411111111111111          6.7404267610982060E-004
   2.3511111111111114          3.9867588202469051E-004
   2.3611111111111112          1.3890466652810574E-004
   2.3711111111111114         -9.8208700364921242E-005
   2.3811111111111112         -3.0642625642940402E-004
   2.3911111111111114         -4.8042609705589712E-004
   2.4011111111111112         -6.1581458430737257E-004
   2.4111111111111114         -7.0911186048761010E-004
   2.4211111111111112         -7.5776834273710847E-004
   2.4311111111111114         -7.6025794260203838E-004
   2.4411111111111112         -7.1626919088885188E-004
   2.4511111111111110         -6.2698090914636850E-004
   2.4611111111111112         -4.9537670565769076E-004
   2.4711111111111110         -3.2652574009262025E-004
   2.4811111111111113         -1.2774633069057018E-004
   2.4911111111111111          9.1422865807544440E-005
   2.5011111111111113          3.1949408003129065E-004
   2.5111111111111111          5.4355501197278500E-004
   2.5211111111111113          7.5001298682764173E-004
   2.5311111111111111          9.2548428801819682E-004
   2.5411111111111113          1.0577264474704862E-003
   2.5511111111111111          1.1365016689524055E-003
   2.5611111111111113          1.1542707215994596E-003
   2.5711111111111111          1.1066482402384281E-003
   2.5811111111111114          9.9258788395673037E-004
   2.5911111111111111          8.1431324360892177E-004
   2.6011111111111114          5.7704502250999212E-004
   2.6111111111111112          2.8859643498435616E-004
   2.6211111111111114         -4.1087412682827562E-005
   2.6311111111111112         -4.0038721635937691E-004
   2.6411111111111114         -7.7643390977755189E-004
   2.6511111111111112         -1.1555035598576069E-003
   2.6611111111111114         -1.5234157908707857E-003
   2.6711111111111112         -1.8659827765077353E-003
   2.6811111111111114         -2.1695541217923164E-003
   2.6911111111111112         -2.4216801393777132E-003
   2.7011111111111110         -2.6118773967027664E-003
   2.7111111111111112         -2.7324429247528315E-003
   2.7211111111111110         -2.7792225591838360E-003
   2.7311111111111113         -2.7522232849150896E-003
   2.7411111111111111         -2.6559566613286734E-003
   2.7511111111111113         -2.4994264822453260E-003
   2.7611111111111111         -2.2957220207899809E-003
   2.7711111111111113         -2.0612312946468592E-003
   2.7811111111111111         -1.8145430367439985E-003
   2.7911111111111113         -1.5751551836729050E-003
   2.8011111111111111         -1.3621209654957056E-003
   2.8111111111111113         -1.1927698506042361E-003
   2.8211111111111111         -1.0816075373440981E-003
   2.8311111111111114         -1.0394628625363111E-003
   2.8411111111111111         -1.0729032801464200E-003
   2.8511111111111114         -1.1838999344035983E-003
   2.8611111111111112         -1.3697046088054776E-003
   2.8711111111111114         -1.6228967579081655E-003
   2.8811111111111112         -1.9315752433612943E-003
   2.8911111111111114         -2.2796953562647104E-003
   2.9011111111111112         -2.6475770864635706E-003
   2.9111111111111114         -3.0126287601888180E-003
   2.9211111111111112         -3.3503174781799316E-003
   2.9311111111111114         -3.6353992763906717E-003
   2.9411111111111112         -3.8433668669313192E-003
   2.9511111111111110         -3.9520263671875000E-003
   2.9611111111111112         -3.9430614560842514E-003
   2.9711111111111110         -3.8034149911254644E-003
   2.9811111111111113         -3.5263213794678450E-003
   2.9911111111111111         -3.1118544284254313E-003
   3.0011111111111113         -2.5669217575341463E-003
   3.0111111111111111         -1.9047138048335910E-003
   3.0211111111111113         -1.1437038192525506E-003
   3.0311111111111111         -3.0635041184723377E-004
   3.0411111111111113          5.8230722788721323E-004
   3.0511111111111111          1.4959824038669467E-003
   3.0611111111111113          2.4082665331661701E-003
   3.0711111111111111          3.2934816554188728E-003
   3.0811111111111114          4.1272742673754692E-003
   3.0911111111111111          4.8870309256017208E-003
   3.1011111111111114          5.5522317998111248E-003
   3.1111111111111112          6.1048655770719051E-003
   3.1211111111111109          6.5299803391098976E-003
   3.1311111111111116          6.8163857795298100E-003
   3.1411111111111114          6.9574406370520592E-003
   3.1511111111111112          6.9517907686531544E-003
   3.1611111111111110          6.8038818426430225E-003
   3.1711111111111117          6.5240832045674324E-003
   3.1811111111111114          6.1282985843718052E-003
   3.1911111111111112          5.6370259262621403E-003
   3.2011111111111110          5.0739347934722900E-003
   3.2111111111111108          4.4641233980655670E-003
   3.2211111111111115          3.8322871550917625E-003
   3.2311111111111113          3.2010520808398724E-003
   3.2411111111111111          2.5897093582898378E-003
   3.2511111111111108          2.0134977530688047E-003
   3.2611111111111115          1.4834883622825146E-003
   3.2711111111111113          1.0070017306134105E-003
   3.2811111111111111          5.8839784469455481E-004
   3.2911111111111109          2.3001487716101110E-004
   3.3011111111111116         -6.6975109803024679E-005
   3.3111111111111113         -3.0198393505997956E-004
   3.3211111111111111         -4.7480670036748052E-004
   3.3311111111111109         -5.8580754557624459E-004
   3.3411111111111116         -6.3639576546847820E-004
   3.3511111111111114         -6.2962155789136887E-004
   3.3611111111111112         -5.7068694150075316E-004
   3.3711111111111109         -4.6718333032913506E-004
   3.3811111111111116         -3.2892936724238098E-004
   3.3911111111111114         -1.6737391706556082E-004
   3.4011111111111112          5.3704648053098936E-006
   3.4111111111111110          1.7770977865438908E-004
   3.4211111111111117          3.3975753467530012E-004
   3.4311111111111114          4.8431183677166700E-004
   3.4411111111111112          6.0743885114789009E-004
   3.4511111111111110          7.0855580270290375E-004
   3.4611111111111117          7.9000473488122225E-004
   3.4711111111111115          8.5620704339817166E-004
   3.4811111111111113          9.1256859013810754E-004
   3.4911111111111111          9.6434948500245810E-004
   3.5011111111111108          1.0157109936699271E-003
   3.5111111111111115          1.0691084899008274E-003
   3.5211111111111113          1.1251205578446388E-003
   3.5311111111111111          1.1827099369838834E-003
   3.5411111111111109          1.2398195685818791E-003
   3.5511111111111116          1.2941401218995452E-003
   3.5611111111111113          1.3438510941341519E-003
   3.5711111111111111          1.3881515478715301E-003
   3.5811111111111109          1.4274475397542119E-003
   3.5911111111111116          1.4631452504545450E-003
   3.6011111111111114          1.4970910269767046E-003
   3.6111111111111112          1.5307788271456957E-003
   3.6211111111111109          1.5645055100321770E-003
   3.6311111111111116          1.5966636128723621E-003
   3.6411111111111114          1.6233371570706367E-003
   3.6511111111111112          1.6382989706471562E-003
   3.6611111111111110          1.6334217507392168E-003
   3.6711111111111117          1.5994246350601315E-003
   3.6811111111111114          1.5268080169335008E-003
   3.6911111111111112          1.4067933661863208E-003
   3.7011111111111110          1.2320912210270762E-003
   3.7111111111111117          9.9737313576042652E-004
   3.7211111111111115          6.9940136745572090E-004
   3.7311111111111113          3.3686260576359928E-004
   3.7411111111111111         -8.9970875706057996E-005
   3.7511111111111108         -5.7958374964073300E-004
   3.7611111111111115         -1.1293957941234112E-003
   3.7711111111111113         -1.7356547759845853E-003
   3.7811111111111111         -2.3930112365633249E-003
   3.7911111111111109         -3.0938435811549425E-003
   3.8011111111111116         -3.8274973630905151E-003
   3.8111111111111113         -4.5796656049787998E-003
   3.8211111111111111         -5.3321467712521553E-003
   3.8311111111111109         -6.0631739906966686E-003
   3.8411111111111116         -6.7484076134860516E-003
   3.8511111111111114         -7.3625654913485050E-003
   3.8611111111111112         -7.8815324231982231E-003
   3.8711111111111109         -8.2846907898783684E-003
   3.8811111111111116         -8.5571547970175743E-003
   3.8911111111111114         -8.6916182190179825E-003
   3.9011111111111112         -8.6895665153861046E-003
   3.9111111111111110         -8.5617322474718094E-003
   3.9211111111111117         -8.3277998492121696E-003
   3.9311111111111114         -8.0154659226536751E-003
   3.9411111111111112         -7.6590422540903091E-003
   3.9511111111111110         -7.2978185489773750E-003
   3.9611111111111117         -6.9743623025715351E-003
   3.9711111111111115         -6.7328684963285923E-003
   3.9811111111111113         -6.6175949759781361E-003
   3.9911111111111111         -6.6713308915495872E-003
   4.0011111111111113         -6.9338269531726837E-003
   4.0111111111111111         -7.4401036836206913E-003
   4.0211111111111109         -8.2186209037899971E-003
   4.0311111111111106         -9.2893587425351143E-003
   4.0411111111111104         -1.0661961510777473E-002
   4.0511111111111120         -1.2334143742918968E-002
   4.0611111111111118         -1.4290592633187771E-002
   4.0711111111111116         -1.6502553597092628E-002
   4.0811111111111114         -1.8928220495581627E-002
   4.0911111111111111         -2.1513905376195908E-002
   4.1011111111111109         -2.4195877835154533E-002
   4.1111111111111107         -2.6902642101049423E-002
   4.1211111111111105         -2.9557362198829651E-002
   4.1311111111111121         -3.2080195844173431E-002
   4.1411111111111119         -3.4390326589345932E-002
   4.1511111111111116         -3.6407619714736938E-002
   4.1611111111111114         -3.8053914904594421E-002
   4.1711111111111112         -3.9254136383533478E-002
   4.1811111111111110         -3.9937362074851990E-002
   4.1911111111111108         -4.0038075298070908E-002
   4.2011111111111106         -3.9497721940279007E-002
   4.2111111111111121         -3.8266591727733612E-002
   4.2211111111111119         -3.6305949091911316E-002
   4.2311111111111117         -3.3590249717235565E-002
   4.2411111111111115         -3.0109168961644173E-002
   4.2511111111111113         -2.5869240984320641E-002
   4.2611111111111111         -2.0894883200526237E-002
   4.2711111111111109         -1.5228729695081711E-002
   4.2811111111111106         -8.9312614873051643E-003
   4.2911111111111104         -2.0798335317522287E-003
   4.3011111111111120          5.2327555604279041E-003
   4.3111111111111118          1.2899983674287796E-002
   4.3211111111111116          2.0803485065698624E-002
   4.3311111111111114          2.8815025463700294E-002
   4.3411111111111111          3.6798577755689621E-002
   4.3511111111111109          4.4612582772970200E-002
   4.3611111111111107          5.2112501114606857E-002
   4.3711111111111105          5.9153746813535690E-002
   4.3811111111111121          6.5595045685768127E-002
   4.3911111111111119          7.1302182972431183E-002
   4.4011111111111116          7.6152026653289795E-002
   4.4111111111111114          8.0036588013172150E-002
   4.4211111111111112          8.2866884768009186E-002
   4.4311111111111110          8.4576286375522614E-002
   4.4411111111111108          8.5123151540756226E-002
   4.4511111111111106          8.4492526948451996E-002
   4.4611111111111121          8.2696780562400818E-002
   4.4711111111111119          7.9775236546993256E-002
   4.4811111111111117          7.5792752206325531E-002
   4.4911111111111115          7.0837505161762238E-002
   4.5011111111111113          6.5018050372600555E-002
   4.5111111111111111          5.8459840714931488E-002
   4.5211111111111109          5.1301486790180206E-002
   4.5311111111111106          4.3690778315067291E-002
   4.5411111111111104          3.5780720412731171E-002
   4.5511111111111120          2.7725627645850182E-002