 -0.88888888888888884          0.0000000000000000     
 -0.87888888888888883          0.0000000000000000     
 -0.86888888888888882          0.0000000000000000     
 -0.85888888888888881          0.0000000000000000     
 -0.84888888888888880          0.0000000000000000     
 -0.83888888888888880          0.0000000000000000     
 -0.82888888888888879          0.0000000000000000     
 -0.81888888888888878          0.0000000000000000     
 -0.80888888888888888          0.0000000000000000     
 -0.79888888888888887          0.0000000000000000     
 -0.78888888888888886          0.0000000000000000     
 -0.77888888888888885          0.0000000000000000     
 -0.76888888888888884          0.0000000000000000     
 -0.75888888888888884          0.0000000000000000     
 -0.74888888888888883          0.0000000000000000     
 -0.73888888888888882         -4.1123146528772743E-038
 -0.72888888888888881         -1.2973426332814334E-037
 -0.71888888888888880          4.1304027816105947E-037
 -0.70888888888888890          2.2708611550495071E-036
 -0.69888888888888889          4.4180069824075528E-036
 -0.68888888888888888         -1.1994663748618799E-036
 -0.67888888888888888         -2.9779304058581729E-035
 -0.66888888888888887         -7.6844005738109272E-035
 -0.65888888888888886         -5.7202465148297016E-035
 -0.64888888888888885          2.1488227291685943E-034
 -0.63888888888888884          8.2130743367297027E-034
 -0.62888888888888883          1.2051723689381847E-033
 -0.61888888888888882         -2.5629516848506902E-034
 -0.60888888888888881         -5.3038518167452699E-033
 -0.59888888888888880         -1.2279547535211661E-032
 -0.58888888888888880         -1.1547199126286021E-032
 -0.57888888888888879          1.3457003492231883E-032
 -0.56888888888888878          7.0212030720801560E-032
 -0.55888888888888877          1.2587870593351128E-031
 -0.54888888888888876          8.5671961976135416E-032
 -0.53888888888888875         -1.6814093694515026E-031
 -0.52888888888888885         -6.3694119081509019E-031
 -0.51888888888888884         -1.0129107867645763E-030
 -0.50888888888888884         -6.2237996613326225E-031
 -0.49888888888888883          1.2245688889804164E-030
 -0.48888888888888882          4.3739268345509345E-030
 -0.47888888888888881          6.8535443346726566E-030
 -0.46888888888888886          4.8013651685325302E-030
 -0.45888888888888885         -5.5341217032193036E-030
 -0.44888888888888884         -2.3529487867528197E-029
 -0.43888888888888883         -3.9675110791552638E-029
 -0.42888888888888882         -3.5190086387233172E-029
 -0.41888888888888881          9.5717664993107285E-030
 -0.40888888888888886          9.7176887945189808E-029
 -0.39888888888888885          1.9303604258536772E-028
 -0.38888888888888884          2.1925684451740863E-028
 -0.37888888888888883          8.0538773137097401E-029
 -0.36888888888888882         -2.7126184006309789E-028
 -0.35888888888888881         -7.5341084236541066E-028
 -0.34888888888888880         -1.1001869992487224E-027
 -0.33888888888888880         -9.0938444558279839E-028
 -0.32888888888888879          1.6736343253787232E-028
 -0.31888888888888878          2.1164828012358700E-027
 -0.30888888888888888          4.2678511271123927E-027
 -0.29888888888888887          5.2348343595419802E-027
 -0.28888888888888886          3.3124250150930842E-027
 -0.27888888888888885         -2.5910818211184446E-027
 -0.26888888888888884         -1.1718215205663184E-026
 -0.25888888888888884         -2.0522296568010309E-026
 -0.24888888888888883         -2.2865369071656220E-026
 -0.23888888888888882         -1.2065340966979651E-026
 -0.22888888888888881          1.5175081499911411E-026
 -0.21888888888888880          5.4102915848935128E-026
 -0.20888888888888879          8.8944023922838327E-026
 -0.19888888888888878          9.4727372760191514E-026
 -0.18888888888888877          4.6212667445156347E-026
 -0.17888888888888888         -6.6561568688413584E-026
 -0.16888888888888887         -2.2107205640855994E-025
 -0.15888888888888886         -3.5300768695209332E-025
 -0.14888888888888885         -3.6636127783664173E-025
 -0.13888888888888884         -1.7049976149665132E-025
 -0.12888888888888883          2.5980734552620756E-025
 -0.11888888888888882          8.2305556027201385E-025
 -0.10888888888888881          1.2667889319903146E-024
  -9.8888888888888804E-002     1.2430793230534445E-024
  -8.8888888888888795E-002     4.6523589575378223E-025
  -7.8888888888888786E-002    -1.0644771711992682E-024
  -6.8888888888888777E-002    -2.8574914486277500E-024
  -5.8888888888888768E-002    -3.9297176991066173E-024
  -4.8888888888888871E-002    -3.1281328619148432E-024
  -3.8888888888888862E-002     1.8243451208744987E-025
  -2.8888888888888853E-002     5.2877772461853241E-024
  -1.8888888888888844E-002     9.6411763602680424E-024
  -8.8888888888888351E-003     9.3651144864859493E-024
   1.1111111111111738E-003     1.1661372816246473E-024
   1.1111111111111183E-002    -1.4607815431686040E-023
   2.1111111111111192E-002    -3.1122033147696248E-023
   3.1111111111111200E-002    -3.4766352804207481E-023
   4.1111111111111209E-002    -9.8568430431464148E-024
   5.1111111111111218E-002     5.0871162754460657E-023
   6.1111111111111227E-002     1.3277962868450958E-022
   7.1111111111111125E-002     1.9025680416715600E-022
   8.1111111111111134E-002     1.5258781241863884E-022
   9.1111111111111143E-002    -4.6486541314610197E-023
  0.10111111111111115         -4.1620904680280896E-022
  0.11111111111111116         -8.5061854094958330E-022
  0.12111111111111117         -1.1003682179844064E-021
  0.13111111111111118         -8.1885332110686777E-022
  0.14111111111111119          2.8723233352663986E-022
  0.15111111111111120          2.2179392077705016E-021
  0.16111111111111120          4.4357431101185398E-021
  0.17111111111111121          5.7701021643369971E-021
  0.18111111111111122          4.6458247713839178E-021
  0.19111111111111123         -2.6168911838977937E-022
  0.20111111111111124         -9.0282749126135248E-021
  0.21111111111111125         -1.9491599943668582E-020
  0.22111111111111126         -2.6864267205702253E-020
  0.23111111111111127         -2.4598338395758213E-020
  0.24111111111111128         -6.8634931663611007E-021
  0.25111111111111128          2.7681130678818242E-020
  0.26111111111111129          7.2078521712173340E-020
  0.27111111111111108          1.0930692901581315E-019
  0.28111111111111109          1.1481056229673765E-019
  0.29111111111111110          6.4639725237575176E-020
  0.30111111111111111         -5.1692810612168827E-020
  0.31111111111111112         -2.1753588659710484E-019
  0.32111111111111112         -3.8116087130713138E-019
  0.33111111111111113         -4.6085980087479803E-019
  0.34111111111111114         -3.6780759128111129E-019
  0.35111111111111115         -4.5105457637700490E-020
  0.36111111111111116          4.8736070314704222E-019
  0.37111111111111117          1.1007521953863123E-018
  0.38111111111111118          1.5595087344573294E-018
  0.39111111111111119          1.5740701117679832E-018
  0.40111111111111120          9.0434022688712723E-019
  0.41111111111111120         -5.0907409082898263E-019
  0.42111111111111121         -2.4318522710824101E-018
  0.43111111111111122         -4.2993667731051112E-018
  0.44111111111111123         -5.3059810584943668E-018
  0.45111111111111124         -4.6355172576150232E-018
  0.46111111111111125         -1.7936634033436605E-018
  0.47111111111111126          3.0556066303369562E-018
  0.48111111111111127          8.8865113356786459E-018
  0.49111111111111128          1.3873282155017880E-017
  0.50111111111111128          1.5788790089771214E-017
  0.51111111111111129          1.2700791687032141E-017
  0.52111111111111108          3.7963371495059950E-018
  0.53111111111111109         -9.9375733441028258E-018
  0.54111111111111110         -2.5474122150701507E-017
  0.55111111111111111         -3.8161252949917335E-017
  0.56111111111111112         -4.2817945617623410E-017
  0.57111111111111112         -3.5298900319295990E-017
  0.58111111111111113         -1.4101938864565301E-017
  0.59111111111111114          1.8503916151886697E-017
  0.60111111111111115          5.6274645554089172E-017
  0.61111111111111116          8.9910423151230945E-017
  0.62111111111111117          1.0895714349288106E-016
  0.63111111111111118          1.0424280295392494E-016
  0.64111111111111119          7.0253680268880119E-017
  0.65111111111111120          6.9313380226018627E-018
  0.66111111111111120         -7.9369713545026917E-017
  0.67111111111111121         -1.7573113300510171E-016
  0.68111111111111122         -2.6316358112147490E-016
  0.69111111111111123         -3.1775236641273200E-016
  0.70111111111111124         -3.1290934965768713E-016
  0.71111111111111125         -2.2364454428327627E-016
  0.72111111111111126         -3.3808979291243026E-017
  0.73111111111111127          2.5356190679897577E-016
  0.74111111111111128          6.0452587920817725E-016
  0.75111111111111128          9.4537442534259027E-016
  0.76111111111111129          1.1630719513031941E-015
  0.77111111111111130          1.1218345757825921E-015
  0.78111111111111109          6.9988447783315196E-016
  0.79111111111111110         -1.5624097106322927E-016
  0.80111111111111111         -1.3720678019175361E-015
  0.81111111111111112         -2.7022847647024213E-015
  0.82111111111111112         -3.7321533735115882E-015
  0.83111111111111113         -3.9473395526627014E-015
  0.84111111111111114         -2.8804928735082008E-015
  0.85111111111111115         -3.1527680674526290E-016
  0.86111111111111116          3.5051250384831494E-015
  0.87111111111111117          7.7465660771355686E-015
  0.88111111111111118          1.1020231527726718E-014
  0.89111111111111119          1.1654026471608590E-014
  0.90111111111111120          8.2048541002804551E-015
  0.91111111111111120          1.2485883711882087E-016
  0.92111111111111121         -1.1606562133376248E-014
  0.93111111111111122         -2.4146893387805637E-014
  0.94111111111111123         -3.3017849115609191E-014
  0.95111111111111124         -3.3067359885442099E-014
  0.96111111111111125         -2.0133813914040635E-014
  0.97111111111111126          6.9008816063332971E-015
  0.98111111111111127          4.4268621835754848E-014
  0.99111111111111128          8.2467615635656299E-014
   1.0011111111111113          1.0716979333049576E-013
   1.0111111111111113          1.0232852569848697E-013
   1.0211111111111113          5.5322872747742141E-014
   1.0311111111111111         -3.6830341023069008E-014
   1.0411111111111111         -1.6196041090297403E-013
   1.0511111111111111         -2.9018589831411590E-013
   1.0611111111111111         -3.7649324304868392E-013
   1.0711111111111111         -3.6974991211163877E-013
   1.0811111111111111         -2.2777640234020180E-013
   1.0911111111111111          6.4116545189438212E-014
   1.1011111111111112          4.7593938339030029E-013
   1.1111111111111112          9.2348470450559494E-013
   1.1211111111111114          1.2727215115138080E-012
   1.1311111111111112          1.3623313631708212E-012
   1.1411111111111114          1.0443741140994667E-012
   1.1511111111111112          2.3728019332355799E-013
   1.1611111111111110         -1.0207313510049443E-012
   1.1711111111111112         -2.5343084835566243E-012
   1.1811111111111110         -3.9473645706278315E-012
   1.1911111111111112         -4.7871004035804354E-012
   1.2011111111111110         -4.5602310989878436E-012
   1.2111111111111112         -2.8921283770633188E-012
   1.2211111111111110          3.1624816697675695E-013
   1.2311111111111113          4.7526136671971475E-012
   1.2411111111111111          9.6249345299392886E-012
   1.2511111111111113          1.3702799311898772E-011
   1.2611111111111111          1.5494156305195794E-011
   1.2711111111111113          1.3553607888794339E-011
   1.2811111111111111          6.8809688849591488E-012
   1.2911111111111113         -4.6691353040861916E-012
   1.3011111111111111         -2.0073900874884032E-011
   1.3111111111111113         -3.7041123640557672E-011
   1.3211111111111111         -5.2217022372680333E-011
   1.3311111111111114         -6.1751735669357544E-011
   1.3411111111111111         -6.2197677563879950E-011
   1.3511111111111114         -5.1629523573071268E-011
   1.3611111111111112         -3.0792941113633177E-011
   1.3711111111111114         -4.0334918564866040E-012
   1.3811111111111112          2.0254325994173428E-011
   1.3911111111111114          2.9872510715067691E-011
   1.4011111111111112          9.8681444959947129E-012
   1.4111111111111114         -5.5661510123261593E-011
   1.4211111111111112         -1.8123168243899812E-010
   1.4311111111111110         -3.7748884573751695E-010
   1.4411111111111112         -6.4906757746285848E-010
   1.4511111111111110         -9.9327623903633366E-010
   1.4611111111111112         -1.3999617021198674E-009
   1.4711111111111110         -1.8526206124747091E-009
   1.4811111111111113         -2.3303994289847196E-009
   1.4911111111111111         -2.8100863858071534E-009
   1.5011111111111113         -3.2664972948737159E-009
   1.5111111111111111         -3.6689979943105300E-009
   1.5211111111111113         -3.9711940402753498E-009
   1.5311111111111111         -4.0898848752135564E-009
   1.5411111111111113         -3.8687044678908933E-009
   1.5511111111111111         -3.0205820067408240E-009
   1.5611111111111113         -1.0421352669709449E-009
   1.5711111111111111          2.9091116182655696E-009
   1.5811111111111114          1.0185589260913730E-008
   1.5911111111111111          2.2884359296426737E-008
   1.6011111111111114          4.4165378909610808E-008
   1.6111111111111112          7.8680379544948664E-008
   1.6211111111111114          1.3314890168203419E-007
   1.6311111111111112          2.1712997977374471E-007
   1.6411111111111114          3.4405192650410754E-007
   1.6511111111111112          5.3258003163136891E-007
   1.6611111111111114          8.0842562510952121E-007
   1.6711111111111112          1.2067227999068564E-006
   1.6811111111111110          1.7751287941791816E-006
   1.6911111111111112          2.5778413146326784E-006
   1.7011111111111110          3.7007494029239751E-006
   1.7111111111111112          5.2579780458472669E-006
   1.7211111111111110          7.4001227403641678E-006
   1.7311111111111113          1.0324491995561402E-005
   1.7411111111111111          1.4287718840932939E-005
   1.7511111111111113          1.9621065803221427E-005
   1.7611111111111111          2.6748830350697972E-005
   1.7711111111111113          3.6210134567227215E-005
   1.7811111111111111          4.8684381908969954E-005
   1.7911111111111113          6.5020518377423286E-005
   1.8011111111111111          8.6270076280925423E-005
   1.8111111111111113          1.1372375593055040E-004
   1.8211111111111111          1.4895097410771996E-004
   1.8311111111111114          1.9384140614420176E-004
   1.8411111111111111          2.5064716464839876E-004
   1.8511111111111114          3.2202361035160720E-004
   1.8611111111111112          4.1106608114205301E-004
   1.8711111111111114          5.2133947610855103E-004
   1.8811111111111112          6.5689662005752325E-004
   1.8911111111111114          8.2228047540411353E-004
   1.9011111111111112          1.0225055739283562E-003
   1.9111111111111114          1.2630120618268847E-003
   1.9211111111111112          1.5495874686166644E-003
   1.9311111111111110          1.8882502336055040E-003
   1.9411111111111112          2.2850895766168833E-003
   1.9511111111111110          2.7460581623017788E-003
   1.9611111111111112          3.2767138909548521E-003
   1.9711111111111110          3.8819122128188610E-003
   1.9811111111111113          4.5654508285224438E-003
   1.9911111111111111          5.3296717815101147E-003
   2.0011111111111113          6.1750332824885845E-003
   2.0111111111111111          7.0996582508087158E-003
   2.0211111111111113          8.0988863483071327E-003
   2.0311111111111111          9.1648446395993233E-003
   2.0411111111111113          1.0286061093211174E-002
   2.0511111111111111          1.1447153985500336E-002
   2.0611111111111113          1.2628621421754360E-002
   2.0711111111111111          1.3806758448481560E-002
   2.0811111111111114          1.4953732490539551E-002
   2.0911111111111111          1.6037840396165848E-002
   2.1011111111111114          1.7023958265781403E-002
   2.1111111111111112          1.7874205484986305E-002
   2.1211111111111114          1.8548812717199326E-002
   2.1311111111111112          1.9007194787263870E-002
   2.1411111111111114          1.9209193065762520E-002
   2.1511111111111112          1.9116474315524101E-002
   2.1611111111111114          1.8694030120968819E-002
   2.1711111111111112          1.7911719158291817E-002
   2.1811111111111114          1.6745807603001595E-002
   2.1911111111111112          1.5180424787104130E-002
   2.2011111111111110          1.3208867982029915E-002
   2.2111111111111112          1.0834692046046257E-002
   2.2211111111111110          8.0725168809294701E-003
   2.2311111111111113          4.9484972842037678E-003
   2.2411111111111111          1.5004101442173123E-003
   2.2511111111111113         -2.2226648870855570E-003
   2.2611111111111111         -6.1610885895788670E-003
   2.2711111111111113         -1.0245819576084614E-002
   2.2811111111111111         -1.4399956911802292E-002
   2.2911111111111113         -1.8540628254413605E-002
   2.3011111111111111         -2.2581160068511963E-002
   2.3111111111111113         -2.6433462277054787E-002
   2.3211111111111111         -3.0010530725121498E-002
   2.3311111111111114         -3.3228982239961624E-002
   2.3411111111111111         -3.6011535674333572E-002
   2.3511111111111114         -3.8289349526166916E-002
   2.3611111111111112         -4.0004093199968338E-002
   2.3711111111111114         -4.1109755635261536E-002
   2.3811111111111112         -4.1574034839868546E-002
   2.3911111111111114         -4.1379339993000031E-002
   2.4011111111111112         -4.0523346513509750E-002
   2.4111111111111114         -3.9019070565700531E-002
   2.4211111111111112         -3.6894518882036209E-002
   2.4311111111111114         -3.4191891551017761E-002
   2.4411111111111112         -3.0966388061642647E-002
   2.4511111111111110         -2.7284672483801842E-002
   2.4611111111111112         -2.3223048076033592E-002
   2.4711111111111110         -1.8865399062633514E-002
   2.4811111111111113         -1.4300989918410778E-002
   2.4911111111111111         -9.6221547573804855E-003
   2.5011111111111113         -4.9219806678593159E-003
   2.5111111111111111         -2.9203042504377663E-004
   2.5211111111111113          4.1798297315835953E-003
   2.5311111111111111          8.4114465862512589E-003
   2.5411111111111113          1.2328191660344601E-002
   2.5511111111111111          1.5864528715610504E-002
   2.5611111111111113          1.8965307623147964E-002
   2.5711111111111111          2.1586757153272629E-002
   2.5811111111111114          2.3697162047028542E-002
   2.5911111111111111          2.5277219712734222E-002
   2.6011111111111114          2.6320075616240501E-002
   2.6111111111111112          2.6831040158867836E-002
   2.6211111111111114          2.6827005669474602E-002
   2.6311111111111112          2.6335597038269043E-002
   2.6411111111111114          2.5394072756171227E-002
   2.6511111111111112          2.4048013612627983E-002
   2.6611111111111114          2.2349856793880463E-002
   2.6711111111111112          2.0357301458716393E-002
   2.6811111111111114          1.8131641671061516E-002
   2.6911111111111112          1.5736091881990433E-002
   2.7011111111111110          1.3234120793640614E-002
   2.7111111111111112          1.0687868110835552E-002
   2.7211111111111110          8.1566628068685532E-003
   2.7311111111111113          5.6956992484629154E-003
   2.7411111111111111          3.3548788633197546E-003
   2.7511111111111113          1.1778487823903561E-003
   2.7611111111111111         -7.9875119263306260E-004
   2.7711111111111113         -2.5458226446062326E-003
   2.7811111111111111         -4.0421253070235252E-003
   2.7911111111111113         -5.2743782289326191E-003
   2.8011111111111111         -6.2371538951992989E-003
   2.8111111111111113         -6.9325743243098259E-003
   2.8211111111111111         -7.3698223568499088E-003
   2.8311111111111114         -7.5644864700734615E-003
   2.8411111111111111         -7.5377598404884338E-003
   2.8511111111111114         -7.3155108839273453E-003
   2.8611111111111112         -6.9272578693926334E-003
   2.8711111111111114         -6.4050769433379173E-003
   2.8811111111111112         -5.7824729010462761E-003
   2.8911111111111114         -5.0932546146214008E-003
   2.9011111111111112         -4.3704472482204437E-003
   2.9111111111111114         -3.6452768836170435E-003
   2.9211111111111112         -2.9462631791830063E-003
   2.9311111111111114         -2.2984482347965240E-003
   2.9411111111111112         -1.7227875068783760E-003
   2.9511111111111110         -1.2357145315036178E-003
   2.9611111111111112         -8.4889284335076809E-004
   2.9711111111111110         -5.6915049208328128E-004
   2.9811111111111113         -3.9859241223894060E-004
   2.9911111111111111         -3.3487542532384396E-004
   3.0011111111111113         -3.7162745138630271E-004
   3.0111111111111111         -4.9898965517058969E-004
   3.0211111111111113         -7.0425472222268581E-004
   3.0311111111111111         -9.7257678862661123E-004
   3.0411111111111113         -1.2877219123765826E-003
   3.0511111111111111         -1.6328315250575542E-003
   3.0611111111111113         -1.9911667332053185E-003
   3.0711111111111111         -2.3468045983463526E-003
   3.0811111111111114         -2.6852539740502834E-003
   3.0911111111111111         -2.9939650557935238E-003
   3.1011111111111114         -3.2627072650939226E-003
   3.1111111111111112         -3.4837939310818911E-003
   3.1211111111111109         -3.6521460860967636E-003
   3.1311111111111116         -3.7651942111551762E-003
   3.1411111111111114         -3.8226272445172071E-003
   3.1511111111111112         -3.8260165601968765E-003
   3.1611111111111110         -3.7783503066748381E-003
   3.1711111111111117         -3.6835218779742718E-003
   3.1811111111111114         -3.5458246711641550E-003
   3.1911111111111112         -3.3694999292492867E-003
   3.2011111111111110         -3.1583837699145079E-003
   3.2111111111111108         -2.9156836681067944E-003
   3.2211111111111115         -2.6439018547534943E-003
   3.2311111111111113         -2.3449067957699299E-003
   3.2411111111111111         -2.0201327279210091E-003
   3.2511111111111108         -1.6708740731701255E-003
   3.2611111111111115         -1.2986279325559735E-003
   3.2711111111111113         -9.0543378610163927E-004
   3.2811111111111111         -4.9416045658290386E-004
   3.2911111111111109         -6.8698158429469913E-005
   3.3011111111111116          3.6597068537957966E-004
   3.3111111111111113          8.0383248860016465E-004
   3.3211111111111111          1.2380267726257443E-003
   3.3311111111111109          1.6611295286566019E-003
   3.3411111111111116          2.0655002444982529E-003
   3.3511111111111114          2.4436502717435360E-003
   3.3611111111111112          2.7885918971151114E-003
   3.3711111111111109          3.0941348522901535E-003
   3.3811111111111116          3.3551051747053862E-003
   3.3911111111111114          3.5674786195158958E-003
   3.4011111111111112          3.7284351419657469E-003
   3.4111111111111110          3.8363505154848099E-003
   3.4211111111111117          3.8907497655600309E-003
   3.4311111111111114          3.8922484964132309E-003
   3.4411111111111112          3.8425037637352943E-003
   3.4511111111111110          3.7441861350089312E-003
   3.4611111111111117          3.6009722389280796E-003
   3.4711111111111115          3.4175482578575611E-003
   3.4811111111111113          3.1996027100831270E-003
   3.4911111111111111          2.9537833761423826E-003
   3.5011111111111108          2.6875932235270739E-003
   3.5111111111111115          2.4092076346278191E-003
   3.5211111111111113          2.1272033918648958E-003
   3.5311111111111111          1.8502039602026343E-003
   3.5411111111111109          1.5864613233134151E-003
   3.5511111111111116          1.3434045249596238E-003
   3.5611111111111113          1.1271961266174912E-003
   3.5711111111111111          9.4233953859657049E-004
   3.5811111111111109          7.9137639841064811E-004
   3.5911111111111116          6.7470641806721687E-004
   3.6011111111111114          5.9054599842056632E-004
   3.6111111111111112          5.3502857917919755E-004
   3.6211111111111109          5.0243467558175325E-004
   3.6311111111111116          4.8552700900472701E-004
   3.6411111111111114          4.7595798969268799E-004
   3.6511111111111112          4.6471419045701623E-004
   3.6611111111111110          4.4256096589379013E-004
   3.6711111111111117          4.0045750210992992E-004
   3.6811111111111114          3.2991808257065713E-004
   3.6911111111111112          2.2330440697260201E-004
   3.7011111111111110          7.4043324275407940E-005
   3.7111111111111117         -1.2322969269007444E-004
   3.7211111111111115         -3.7259524106048048E-004
   3.7311111111111113         -6.7683600354939699E-004
   3.7411111111111111         -1.0374767007306218E-003
   3.7511111111111108         -1.4548746403306723E-003
   3.7611111111111115         -1.9283568253740668E-003
   3.7711111111111113         -2.4564045015722513E-003
   3.7811111111111111         -3.0368820298463106E-003
   3.7911111111111109         -3.6673075519502163E-003
   3.8011111111111116         -4.3451576493680477E-003
   3.8111111111111113         -5.0681927241384983E-003
   3.8211111111111111         -5.8347843587398529E-003
   3.8311111111111109         -6.6442238166928291E-003
   3.8411111111111116         -7.4969818815588951E-003
   3.8511111111111114         -8.3948951214551926E-003
   3.8611111111111112         -9.3412455171346664E-003
   3.8711111111111109         -1.0340706445276737E-002
   3.8811111111111116         -1.1399144306778908E-002
   3.8911111111111114         -1.2523258104920387E-002
   3.9011111111111112         -1.3720060698688030E-002
   3.9111111111111110         -1.4996219426393509E-002
   3.9211111111111117         -1.6357284039258957E-002
   3.9311111111111114         -1.7806816846132278E-002
   3.9411111111111112         -1.9345480948686600E-002
   3.9511111111111110         -2.0970130339264870E-002
   3.9611111111111117         -2.2672940045595169E-002
   3.9711111111111115         -2.4440612643957138E-002
   3.9811111111111113         -2.6253724470734596E-002
   3.9911111111111111         -2.8086228296160698E-002
   4.0011111111111113         -2.9905153438448906E-002
   4.0111111111111111         -3.1670525670051575E-002
   4.0211111111111109         -3.3335536718368530E-002
   4.0311111111111106         -3.4846972674131393E-002
   4.0411111111111104         -3.6145921796560287E-002
   4.0511111111111120         -3.7168759852647781E-002
   4.0611111111111118         -3.7848431617021561E-002
   4.0711111111111116         -3.8116011768579483E-002
   4.0811111111111114         -3.7902537733316422E-002
   4.0911111111111111         -3.7141080945730209E-002
   4.1011111111111109         -3.5768993198871613E-002
   4.1111111111111107         -3.3730290830135345E-002
   4.1211111111111105         -3.0978064984083176E-002
   4.1311111111111121         -2.7476858347654343E-002
   4.1411111111111119         -2.3204885423183441E-002
   4.1511111111111116         -1.8156023696064949E-002
   4.1611111111111114         -1.2341457419097424E-002
   4.1711111111111112         -5.7908804155886173E-003
   4.1811111111111110          1.4467763248831034E-003
   4.1911111111111108          9.3031851574778557E-003
   4.2011111111111106          1.7690990120172501E-002
   4.2111111111111121          2.6504760608077049E-002
   4.2211111111111119          3.5622481256723404E-002
   4.2311111111111117          4.4907566159963608E-002
   4.2411111111111115          5.4211325943470001E-002
   4.2511111111111113          6.3375838100910187E-002
   4.2611111111111111          7.2237171232700348E-002
   4.2711111111111109          8.0628871917724609E-002
   4.2811111111111106          8.8385626673698425E-002
   4.2911111111111104          9.5347076654434204E-002
   4.3011111111111120         0.10136160999536514     
   4.3111111111111118         0.10629006475210190     
   4.3211111111111116         0.11000924557447433     
   4.3311111111111114         0.11241517215967178     
   4.3411111111111111         0.11342586576938629     
   4.3511111111111109         0.11298364400863647     
   4.3611111111111107         0.11105683445930481     
   4.3711111111111105         0.10764082521200180     
   4.3811111111111121         0.10275841504335403     
   4.3911111111111119          9.6459485590457916E-002
   4.4011111111111116          8.8820025324821472E-002
   4.4111111111111114          7.9940505325794220E-002
   4.4211111111111112          6.9943711161613464E-002
   4.4311111111111110          5.8972075581550598E-002
   4.4411111111111108          4.7184638679027557E-002
   4.4511111111111106          3.4753642976284027E-002
   4.4611111111111121          2.1860886365175247E-002
   4.4711111111111119          8.6939325556159019E-003
   4.4811111111111117         -4.5577776618301868E-003
   4.4911111111111115         -1.7706790938973427E-002
   4.5011111111111113         -3.0571427196264267E-002
   4.5111111111111111         -4.2979363352060318E-002
   4.5211111111111109         -5.4770901799201965E-002
   4.5311111111111106         -6.5801873803138733E-002
   4.5411111111111104         -7.5946025550365448E-002
   4.5511111111111120         -8.5096873342990875E-002