 -0.88888888888888884          0.0000000000000000     
 -0.87888888888888883          0.0000000000000000     
 -0.86888888888888882          0.0000000000000000     
 -0.85888888888888881          0.0000000000000000     
 -0.84888888888888880          0.0000000000000000     
 -0.83888888888888880          0.0000000000000000     
 -0.82888888888888879          0.0000000000000000     
 -0.81888888888888878          0.0000000000000000     
 -0.80888888888888888         -2.7164446506474358E-037
 -0.79888888888888887         -6.7887525126279294E-037
 -0.78888888888888886         -2.8208732685822950E-036
 -0.77888888888888885         -5.2360335298433752E-035
 -0.76888888888888884         -3.2739381930972714E-034
 -0.75888888888888884         -9.4020336079986749E-034
 -0.74888888888888883         -8.8787356654362478E-034
 -0.73888888888888882          2.6284490821348061E-033
 -0.72888888888888881          9.1372527707919854E-033
 -0.71888888888888880          8.5442726251387670E-034
 -0.70888888888888890         -6.0201726540710354E-032
 -0.69888888888888889         -1.7114294968311075E-031
 -0.68888888888888888         -1.4552810493264753E-031
 -0.67888888888888888          4.3844199554032107E-031
 -0.66888888888888887          1.7950693993553917E-030
 -0.65888888888888886          2.7995626121330516E-030
 -0.64888888888888885          1.2029041754464564E-031
 -0.63888888888888884         -9.8963233107592041E-030
 -0.62888888888888883         -2.4555597763140643E-029
 -0.61888888888888882         -2.6540539404730119E-029
 -0.60888888888888881          1.4105074569189090E-029
 -0.59888888888888880          1.1304519049891741E-028
 -0.58888888888888880          2.2165231618223748E-028
 -0.57888888888888879          1.9407410678833028E-028
 -0.56888888888888878         -1.5552944766102558E-028
 -0.55888888888888877         -8.5812967197282088E-028
 -0.54888888888888876         -1.5313562988853648E-027
 -0.53888888888888875         -1.3031378375213550E-027
 -0.52888888888888885          7.7169971385855490E-028
 -0.51888888888888884          4.7210020281692988E-027
 -0.50888888888888884          8.5661866437565244E-027
 -0.49888888888888883          8.1915693880418966E-027
 -0.48888888888888882         -7.4999260560361498E-028
 -0.47888888888888881         -1.8854042183486485E-026
 -0.46888888888888886         -3.8804825973847682E-026
 -0.45888888888888885         -4.4670749442752460E-026
 -0.44888888888888884         -1.8104371641517821E-026
 -0.43888888888888883          4.8365968056546074E-026
 -0.42888888888888882          1.3643573688117321E-025
 -0.41888888888888881          1.9607299269234786E-025
 -0.40888888888888886          1.5929948971242010E-025
 -0.39888888888888885         -2.3121174168357644E-026
 -0.38888888888888884         -3.3332250122701477E-025
 -0.37888888888888883         -6.5248884420603190E-025
 -0.36888888888888882         -7.7342018559647491E-025
 -0.35888888888888881         -4.7917240554348238E-025
 -0.34888888888888880          3.2431952753856682E-025
 -0.33888888888888880          1.4749300790481049E-024
 -0.32888888888888879          2.5028111053856519E-024
 -0.31888888888888878          2.7350706885444431E-024
 -0.30888888888888888          1.5716446232434272E-024
 -0.29888888888888887         -1.1504004926416197E-024
 -0.28888888888888886         -4.8755228758518020E-024
 -0.27888888888888885         -8.3156391817288823E-024
 -0.26888888888888884         -9.7801831180988473E-024
 -0.25888888888888884         -7.7281484332009225E-024
 -0.24888888888888883         -1.2560075699986591E-024
 -0.23888888888888882          9.7178118306275480E-024
 -0.22888888888888881          2.4462795974235228E-023
 -0.21888888888888880          4.1041267988697498E-023
 -0.20888888888888879          5.4750525095404302E-023
 -0.19888888888888878          5.5416241657876693E-023
 -0.18888888888888877          2.5486361931421216E-023
 -0.17888888888888888         -5.6770027945431817E-023
 -0.16888888888888887         -2.0388096211485118E-022
 -0.15888888888888886         -3.9400620952656528E-022
 -0.14888888888888885         -5.4170358920381319E-022
 -0.13888888888888884         -4.8554633578778257E-022
 -0.12888888888888883         -2.3335614714870270E-023
 -0.11888888888888882          9.7955410724093607E-022
 -0.10888888888888881          2.4141659976723999E-021
  -9.8888888888888804E-002     3.7473014465853254E-021
  -8.8888888888888795E-002     3.9645175406339732E-021
  -7.8888888888888786E-002     1.7970416008873914E-021
  -6.8888888888888777E-002    -3.6608077581981155E-021
  -5.8888888888888768E-002    -1.2011817639070695E-020
  -4.8888888888888871E-002    -2.0637947872457768E-020
  -3.8888888888888862E-002    -2.4422538281783686E-020
  -2.8888888888888853E-002    -1.6821207279167387E-020
  -1.8888888888888844E-002     7.3012583107156169E-021
  -8.8888888888888351E-003     4.7423453589795622E-020
   1.1111111111111738E-003     9.3191990192511129E-020
   1.1111111111111183E-002     1.2285418289547693E-019
   2.1111111111111192E-002     1.0714083379722087E-019
   3.1111111111111200E-002     2.0313478199248174E-020
   4.1111111111111209E-002    -1.4279346203394716E-019
   5.1111111111111218E-002    -3.4909505976514841E-019
   6.1111111111111227E-002    -5.1834011635201336E-019
   7.1111111111111125E-002    -5.3391091250392327E-019
   8.1111111111111134E-002    -2.8087049531148180E-019
   9.1111111111111143E-002     2.9106482427695017E-019
  0.10111111111111115          1.0971287307130237E-018
  0.11111111111111116          1.8729271583609419E-018
  0.12111111111111117          2.1968841734612096E-018
  0.13111111111111118          1.6114649827075507E-018
  0.14111111111111119         -1.5831184853923359E-019
  0.15111111111111120         -2.9447232760193760E-018
  0.16111111111111120         -5.9495102042677587E-018
  0.17111111111111121         -7.7746556881348812E-018
  0.18111111111111122         -6.7896407429006103E-018
  0.19111111111111123         -1.8419579298172628E-018
  0.20111111111111124          6.8643823015090642E-018
  0.21111111111111125          1.7091564812956506E-017
  0.22111111111111126          2.4566167351332677E-017
  0.23111111111111127          2.4034511901865244E-017
  0.24111111111111128          1.1406640321732715E-017
  0.25111111111111128         -1.3538317020325757E-017
  0.26111111111111129         -4.4989893604338596E-017
  0.27111111111111108         -7.0888379261614508E-017
  0.28111111111111109         -7.5766111132607002E-017
  0.29111111111111110         -4.6748367090063025E-017
  0.30111111111111111          1.8759998034643313E-017
  0.31111111111111112          1.0676739788810619E-016
  0.32111111111111112          1.8562753508857594E-016
  0.33111111111111113          2.1327492871497271E-016
  0.34111111111111114          1.5309261577273404E-016
  0.35111111111111115         -5.4635937067714458E-018
  0.36111111111111116         -2.2959622128715862E-016
  0.37111111111111117         -4.3950676160541685E-016
  0.38111111111111118         -5.2659318352794686E-016
  0.39111111111111119         -3.9465821993287377E-016
  0.40111111111111120         -1.4261516893977806E-017
  0.41111111111111120          5.3094333298680813E-016
  0.42111111111111121          1.0331432381832520E-015
  0.43111111111111122          1.2072637777438191E-015
  0.44111111111111123          8.0052178578541547E-016
  0.45111111111111124         -2.5964606504976461E-016
  0.46111111111111125         -1.7345751393319192E-015
  0.47111111111111126         -3.0345762134267569E-015
  0.48111111111111127         -3.3367469587884929E-015
  0.49111111111111128         -1.8829622885593086E-015
  0.50111111111111128          1.5955197520844304E-015
  0.51111111111111129          6.4683569373120975E-015
  0.52111111111111108          1.1017303334828060E-014
  0.53111111111111109          1.2674011688230957E-014
  0.54111111111111110          8.7946846460680399E-015
  0.55111111111111111         -2.1109916047731651E-015
  0.56111111111111112         -1.9028608712595013E-014
  0.57111111111111112         -3.7519168544566939E-014
  0.58111111111111113         -4.9867506228973985E-014
  0.59111111111111114         -4.6779393509874256E-014
  0.60111111111111115         -2.0667785178055641E-014
  0.61111111111111116          3.0097835167089762E-014
  0.62111111111111117          9.7320487443559173E-014
  0.63111111111111118          1.6131072985616640E-013
  0.64111111111111119          1.9320883868495509E-013
  0.65111111111111120          1.6227412480158271E-013
  0.66111111111111120          4.7556620777879435E-014
  0.67111111111111121         -1.4867303894071371E-013
  0.68111111111111122         -3.9026933269271924E-013
  0.69111111111111123         -6.0484245650166413E-013
  0.70111111111111124         -6.9444309244021118E-013
  0.71111111111111125         -5.6117220245677224E-013
  0.72111111111111126         -1.4472285674548002E-013
  0.73111111111111127          5.3695231854583580E-013
  0.74111111111111128          1.3576484771474218E-012
  0.75111111111111128          2.0793874434821280E-012
  0.76111111111111129          2.3882226491550584E-012
  0.77111111111111130          1.9734383398251065E-012
  0.78111111111111109          6.4039751149561064E-013
  0.79111111111111110         -1.5686193663433379E-012
  0.80111111111111111         -4.2845102465882690E-012
  0.81111111111111112         -6.7963100425227907E-012
  0.82111111111111112         -8.1468798721062718E-012
  0.83111111111111113         -7.3519159510260224E-012
  0.84111111111111114         -3.7185515083804077E-012
  0.85111111111111115          2.8021450177578844E-012
  0.86111111111111116          1.1330573632117868E-011
  0.87111111111111117          1.9959955563364495E-011
  0.88111111111111118          2.5946201784310396E-011
  0.89111111111111119          2.6235574476785040E-011
  0.90111111111111120          1.8292202821901249E-011
  0.91111111111111120          1.0821950974237993E-012
  0.92111111111111121         -2.4026575867752697E-011
  0.93111111111111122         -5.2747580608913935E-011
  0.94111111111111123         -7.8028694616705252E-011
  0.95111111111111124         -9.1063073748287593E-011
  0.96111111111111125         -8.3160464625642305E-011
  0.97111111111111126         -4.8238187749793937E-011
  0.98111111111111127          1.4560172512112501E-011
  0.99111111111111128          9.8801015979699258E-011
   1.0011111111111113          1.8999581075096472E-010
   1.0111111111111113          2.6675897601968757E-010
   1.0211111111111113          3.0419286534133505E-010
   1.0311111111111111          2.7931568169492493E-010
   1.0411111111111111          1.7777261607232475E-010
   1.0511111111111111          5.3067798636355357E-013
   1.0611111111111111         -2.3110276192728207E-010
   1.0711111111111111         -4.7385495527407784E-010
   1.0811111111111111         -6.6564626033382979E-010
   1.0911111111111111         -7.3421124735517651E-010
   1.1011111111111112         -6.1085497771173891E-010
   1.1111111111111112         -2.4791529940060286E-010
   1.1211111111111114          3.6246386447835732E-010
   1.1311111111111112          1.1711825953497623E-009
   1.1411111111111114          2.0594213001601247E-009
   1.1511111111111112          2.8320596978659296E-009
   1.1611111111111110          3.2171179054074628E-009
   1.1711111111111112          2.8682418662384634E-009
   1.1811111111111110          1.3637696527624144E-009
   1.1911111111111112         -1.8080326125158308E-009
   1.2011111111111110         -7.2922388127949489E-009
   1.2111111111111112         -1.5958006471805675E-008
   1.2211111111111110         -2.9060363004873579E-008
   1.2311111111111113         -4.8500670146722769E-008
   1.2411111111111111         -7.7219674210482481E-008
   1.2511111111111113         -1.1976342761954584E-007
   1.2611111111111111         -1.8307285643004434E-007
   1.2711111111111113         -2.7755993414757540E-007
   1.2811111111111111         -4.1855830090753443E-007
   1.2911111111111113         -6.2825534996591159E-007
   1.3011111111111111         -9.3825588010076899E-007
   1.3111111111111113         -1.3929767419540440E-006
   1.3211111111111111         -2.0541340290947119E-006
   1.3311111111111114         -3.0066512408666313E-006
   1.3411111111111111         -4.3664249460562132E-006
   1.3511111111111114         -6.2904805417929310E-006
   1.3611111111111112         -8.9901723185903393E-006
   1.3711111111111114         -1.2748220797220711E-005
   1.3811111111111112         -1.7940525140147656E-005
   1.3911111111111114         -2.5063813154702075E-005
   1.4011111111111112         -3.4770291676977649E-005
   1.4111111111111114         -4.7910587454680353E-005
   1.4211111111111112         -6.5586391428951174E-005
   1.4311111111111110         -8.9213986939284950E-005
   1.4411111111111112         -1.2060006702085957E-004
   1.4511111111111110         -1.6203080303966999E-004
   1.4611111111111112         -2.1637485770042986E-004
   1.4711111111111110         -2.8720061527565122E-004
   1.4811111111111113         -3.7890695966780186E-004
   1.4911111111111111         -4.9686612328514457E-004
   1.5011111111111113         -6.4757582731544971E-004
   1.5111111111111111         -8.3881680620834231E-004
   1.5211111111111113         -1.0798089206218719E-003
   1.5311111111111111         -1.3813587138429284E-003
   1.5411111111111113         -1.7559865955263376E-003
   1.5511111111111111         -2.2180220112204552E-003
   1.5611111111111113         -2.7836507651954889E-003
   1.5711111111111111         -3.4708962775766850E-003
   1.5811111111111114         -4.2995158582925797E-003
   1.5911111111111111         -5.2907904610037804E-003
   1.6011111111111114         -6.4671863801777363E-003
   1.6111111111111112         -7.8518716618418694E-003
   1.6211111111111114         -9.4680609181523323E-003
   1.6311111111111112         -1.1338181793689728E-002
   1.6411111111111114         -1.3482851907610893E-002
   1.6511111111111112         -1.5919670462608337E-002
   1.6611111111111114         -1.8661821261048317E-002
   1.6711111111111112         -2.1716533228754997E-002
   1.6811111111111110         -2.5083409622311592E-002
   1.6911111111111112         -2.8752703219652176E-002
   1.7011111111111110         -3.2703578472137451E-002
   1.7111111111111112         -3.6902472376823425E-002
   1.7211111111111110         -4.1301608085632324E-002
   1.7311111111111113         -4.5837827026844025E-002
   1.7411111111111111         -5.0431787967681885E-002
   1.7511111111111113         -5.4987691342830658E-002
   1.7611111111111111         -5.9393599629402161E-002
   1.7711111111111113         -6.3522502779960632E-002
   1.7811111111111111         -6.7234128713607788E-002
   1.7911111111111113         -7.0377603173255920E-002
   1.8011111111111111         -7.2794966399669647E-002
   1.8111111111111113         -7.4325449764728546E-002
   1.8211111111111111         -7.4810549616813660E-002
   1.8311111111111114         -7.4099659919738770E-002
   1.8411111111111111         -7.2056174278259277E-002
   1.8511111111111114         -6.8563781678676605E-002
   1.8611111111111112         -6.3532769680023193E-002
   1.8711111111111114         -5.6906014680862427E-002
   1.8811111111111112         -4.8664338886737823E-002
   1.8911111111111114         -3.8830984383821487E-002
   1.9011111111111112         -2.7474883943796158E-002
   1.9111111111111114         -1.4712490141391754E-002
   1.9211111111111112         -7.0799054810777307E-004
   1.9311111111111110          1.4328286983072758E-002
   1.9411111111111112          3.0143320560455322E-002
   1.9511111111111110          4.6446677297353745E-002
   1.9611111111111112          6.2917530536651611E-002
   1.9711111111111110          7.9213209450244904E-002
   1.9811111111111113          9.4979032874107361E-002
   1.9911111111111111         0.10985898226499557     
   2.0011111111111113         0.12350693345069885     
   2.0111111111111111         0.13559789955615997     
   2.0211111111111113         0.14583887159824371     
   2.0311111111111111         0.15397870540618896     
   2.0411111111111113         0.15981681644916534     
   2.0511111111111111         0.16321004927158356     
   2.0611111111111113         0.16407766938209534     
   2.0711111111111111         0.16240397095680237     
   2.0811111111111114         0.15823870897293091     
   2.0911111111111111         0.15169507265090942     
   2.1011111111111114         0.14294545352458954     
   2.1111111111111112         0.13221518695354462     
   2.1211111111111114         0.11977453529834747     
   2.1311111111111112         0.10592925548553467     
   2.1411111111111114          9.1010145843029022E-002
   2.1511111111111112          7.5362160801887512E-002
   2.1611111111111114          5.9333402663469315E-002
   2.1711111111111112          4.3264500796794891E-002
   2.1811111111111114          2.7478775009512901E-002
   2.1911111111111112          1.2273513711988926E-002
   2.2011111111111110         -2.0873385947197676E-003
   2.2111111111111112         -1.5378866344690323E-002
   2.2211111111111110         -2.7419138699769974E-002
   2.2311111111111113         -3.8071386516094208E-002
   2.2411111111111111         -4.7244440764188766E-002
   2.2511111111111113         -5.4891582578420639E-002
   2.2611111111111111         -6.1007943004369736E-002
   2.2711111111111113         -6.5626680850982666E-002
   2.2811111111111111         -6.8814218044281006E-002
   2.2911111111111113         -7.0664808154106140E-002
   2.3011111111111111         -7.1294702589511871E-002
   2.3111111111111113         -7.0836164057254791E-002
   2.3211111111111111         -6.9431602954864502E-002
   2.3311111111111114         -6.7228078842163086E-002
   2.3411111111111111         -6.4372308552265167E-002
   2.3511111111111114         -6.1006333678960800E-002
   2.3611111111111112         -5.7263959199190140E-002
   2.3711111111111114         -5.3268000483512878E-002
   2.3811111111111112         -4.9128323793411255E-002
   2.3911111111111114         -4.4940710067749023E-002
   2.4011111111111112         -4.0786389261484146E-002
   2.4111111111111114         -3.6732222884893417E-002
   2.4211111111111112         -3.2831396907567978E-002
   2.4311111111111114         -2.9124492779374123E-002
   2.4411111111111112         -2.5640856474637985E-002
   2.4511111111111110         -2.2400075569748878E-002
   2.4611111111111112         -1.9413508474826813E-002
   2.4711111111111110         -1.6685752198100090E-002
   2.4811111111111113         -1.4215996488928795E-002
   2.4911111111111111         -1.1999212205410004E-002
   2.5011111111111113         -1.0027163662016392E-002
   2.5111111111111111         -8.2892281934618950E-003
   2.5211111111111113         -6.7730555310845375E-003
   2.5311111111111111         -5.4650693200528622E-003
   2.5411111111111113         -4.3508475646376610E-003
   2.5511111111111111         -3.4154115710407495E-003
   2.5611111111111113         -2.6434576138854027E-003
   2.5711111111111111         -2.0195473916828632E-003
   2.5811111111111114         -1.5282800886780024E-003
   2.5911111111111111         -1.1544518638402224E-003
   2.6011111111111114         -8.8320224313065410E-004
   2.6111111111111112         -7.0014677476137877E-004
   2.6211111111111114         -5.9149460867047310E-004
   2.6311111111111112         -5.4414768237620592E-004
   2.6411111111111114         -5.4578442359343171E-004
   2.6511111111111112         -5.8492977404966950E-004
   2.6611111111111114         -6.5101479412987828E-004
   2.6711111111111112         -7.3442736174911261E-004
   2.6811111111111114         -8.2655483856797218E-004
   2.6911111111111112         -9.1981963487342000E-004
   2.7011111111111110         -1.0077081387862563E-003
   2.7111111111111112         -1.0847927769646049E-003
   2.7211111111111110         -1.1467463336884975E-003
   2.7311111111111113         -1.1903456179425120E-003
   2.7411111111111111         -1.2134613934904337E-003
   2.7511111111111113         -1.2150290422141552E-003
   2.7611111111111111         -1.1949987383559346E-003
   2.7711111111111113         -1.1542623396962881E-003
   2.7811111111111111         -1.0945565300062299E-003
   2.7911111111111113         -1.0183454724028707E-003
   2.8011111111111111         -9.2868239153176546E-004
   2.8111111111111113         -8.2905229646712542E-004
   2.8211111111111111         -7.2319549508392811E-004
   2.8311111111111114         -6.1491137603297830E-004
   2.8411111111111111         -5.0784501945599914E-004
   2.8511111111111114         -4.0525879012420774E-004
   2.8611111111111112         -3.0979877919889987E-004
   2.8711111111111114         -2.2326754697132856E-004
   2.8811111111111112         -1.4642025053035468E-004
   2.8911111111111114         -7.8804296208545566E-005
   2.9011111111111112         -1.8663817172637209E-005
   2.9111111111111114          3.7071709812153131E-005
   2.9211111111111112          9.2699585366062820E-005
   2.9311111111111114          1.5354921924881637E-004
   2.9411111111111112          2.2568223357666284E-004
   2.9511111111111110          3.1549876439385116E-004
   2.9611111111111112          4.2927099275402725E-004
   2.9711111111111110          5.7263305643573403E-004
   2.9811111111111113          7.5006327824667096E-004
   2.9911111111111111          9.6439843764528632E-004
   3.0011111111111113          1.2164189247414470E-003
   3.0111111111111111          1.5045424224808812E-003
   3.0211111111111113          1.8246523104608059E-003
   3.0311111111111111          2.1700789220631123E-003
   3.0411111111111113          2.5317366234958172E-003
   3.0511111111111111          2.8984092641621828E-003
   3.0611111111111113          3.2571654301136732E-003
   3.0711111111111111          3.5938781220465899E-003
   3.0811111111111114          3.8938187062740326E-003
   3.0911111111111111          4.1422927752137184E-003
   3.1011111111111114          4.3252832256257534E-003
   3.1111111111111112          4.4300649315118790E-003
   3.1211111111111109          4.4457558542490005E-003
   3.1311111111111116          4.3637808412313461E-003
   3.1411111111111114          4.1782232001423836E-003
   3.1511111111111112          3.8860596250742674E-003
   3.1611111111111110          3.4872761461883783E-003
   3.1711111111111117          2.9848797712475061E-003
   3.1811111111111114          2.3848142009228468E-003
   3.1911111111111112          1.6958011547103524E-003
   3.2011111111111110          9.2911679530516267E-004
   3.2111111111111108          9.8320022516418248E-005
   3.2211111111111115         -7.8105879947543144E-004
   3.2311111111111113         -1.6918585170060396E-003
   3.2411111111111111         -2.6156543754041195E-003
   3.2511111111111108         -3.5331523977220058E-003
   3.2611111111111115         -4.4246222823858261E-003
   3.2711111111111113         -5.2703744731843472E-003
   3.2811111111111111         -6.0512921772897243E-003
   3.2911111111111109         -6.7494139075279236E-003
   3.3011111111111116         -7.3485509492456913E-003
   3.3111111111111113         -7.8349001705646515E-003
   3.3211111111111111         -8.1976195797324181E-003
   3.3311111111111109         -8.4293009713292122E-003
   3.3411111111111116         -8.5263196378946304E-003
   3.3511111111111114         -8.4889987483620644E-003
   3.3611111111111112         -8.3215897902846336E-003
   3.3711111111111109         -8.0320425331592560E-003
   3.3811111111111116         -7.6315826736390591E-003
   3.3911111111111114         -7.1341115981340408E-003
   3.4011111111111112         -6.5554808825254440E-003
   3.4111111111111110         -5.9126811102032661E-003
   3.4211111111111117         -5.2230237051844597E-003
   3.4311111111111114         -4.5033697970211506E-003
   3.4411111111111112         -3.7694582715630531E-003
   3.4511111111111110         -3.0353635083884001E-003
   3.4611111111111117         -2.3130951449275017E-003
   3.4711111111111115         -1.6123321838676929E-003
   3.4811111111111113         -9.4028044259175658E-004
   3.4911111111111111         -3.0163538758642972E-004
   3.5011111111111108          3.0135863926261663E-004
   3.5111111111111115          8.6876156274229288E-004
   3.5211111111111113          1.4027091674506664E-003
   3.5311111111111111          1.9071090500801802E-003
   3.5411111111111109          2.3872689343988895E-003
   3.5511111111111116          2.8494647704064846E-003
   3.5611111111111113          3.3004581928253174E-003
   3.5711111111111111          3.7469780072569847E-003
   3.5811111111111109          4.1951849125325680E-003
   3.5911111111111116          4.6501550823450089E-003
   3.6011111111111114          5.1154284738004208E-003
   3.6111111111111112          5.5926661007106304E-003
   3.6211111111111109          6.0814702883362770E-003
   3.6311111111111116          6.5793846733868122E-003
   3.6411111111111114          7.0820762775838375E-003
   3.6511111111111112          7.5836703181266785E-003
   3.6611111111111110          8.0771800130605698E-003
   3.6711111111111117          8.5549652576446533E-003
   3.6811111111111114          9.0091498568654060E-003
   3.6911111111111112          9.4319302588701248E-003
   3.7011111111111110          9.8157338798046112E-003
   3.7111111111111117          1.0153184644877911E-002
   3.7211111111111115          1.0436883196234703E-002
   3.7311111111111113          1.0659018531441689E-002
   3.7411111111111111          1.0810879990458488E-002
   3.7511111111111108          1.0882352478802204E-002
   3.7611111111111115          1.0861511342227459E-002
   3.7711111111111113          1.0734424926340580E-002
   3.7811111111111111          1.0485263541340828E-002
   3.7911111111111109          1.0096771642565727E-002
   3.8011111111111116          9.5511088147759438E-003
   3.8111111111111113          8.8310344144701958E-003
   3.8211111111111111          7.9213650897145271E-003
   3.8311111111111109          6.8105971440672874E-003
   3.8411111111111116          5.4925465956330299E-003
   3.8511111111111114          3.9678746834397316E-003
   3.8611111111111112          2.2453223355114460E-003
   3.8711111111111109          3.4250706085003912E-004
   3.8811111111111116         -1.7138468101620674E-003
   3.8911111111111114         -3.8883287925273180E-003
   3.9011111111111112         -6.1379401013255119E-003
   3.9111111111111110         -8.4138317033648491E-003
   3.9211111111111117         -1.0663585737347603E-002
   3.9311111111111114         -1.2833910062909126E-002
   3.9411111111111112         -1.4873555861413479E-002
   3.9511111111111110         -1.6736287623643875E-002
   3.9611111111111117         -1.8383702263236046E-002
   3.9711111111111115         -1.9787713885307312E-002
   3.9811111111111113         -2.0932557061314583E-002
   3.9911111111111111         -2.1816182881593704E-002
   4.0011111111111113         -2.2451011463999748E-002
   4.0111111111111111         -2.2864045575261116E-002
   4.0211111111111109         -2.3096432909369469E-002
   4.0311111111111106         -2.3202620446681976E-002
   4.0411111111111104         -2.3249261081218719E-002
   4.0511111111111120         -2.3314055055379868E-002
   4.0611111111111118         -2.3484678938984871E-002
   4.0711111111111116         -2.3857949301600456E-002
   4.0811111111111114         -2.4539273232221603E-002
   4.0911111111111111         -2.5642439723014832E-002
   4.1011111111111109         -2.7289723977446556E-002
   4.1111111111111107         -2.9612207785248756E-002
   4.1211111111111105         -3.2750193029642105E-002
   4.1311111111111121         -3.6853540688753128E-002
   4.1411111111111119         -4.2081702500581741E-002
   4.1511111111111116         -4.8603314906358719E-002
   4.1611111111111114         -5.6595131754875183E-002
   4.1711111111111112         -6.6240206360816956E-002
   4.1811111111111110         -7.7725224196910858E-002
   4.1911111111111108         -9.1236911714076996E-002
   4.2011111111111106        -0.10695755481719971     
   4.2111111111111121        -0.12505960464477539     
   4.2211111111111119        -0.14569941163063049     
   4.2311111111111117        -0.16901013255119324     
   4.2411111111111115        -0.19509404897689819     
   4.2511111111111113        -0.22401422262191772     
   4.2611111111111111        -0.25578600168228149     
   4.2711111111111109        -0.29036813974380493     
   4.2811111111111106        -0.32765430212020874     
   4.2911111111111104        -0.36746469140052795     
   4.3011111111111120        -0.40953871607780457     
   4.3111111111111118        -0.45352843403816223     
   4.3211111111111116        -0.49899345636367798     
   4.3311111111111114        -0.54539775848388672     
   4.3411111111111111        -0.59210842847824097     
   4.3511111111111109        -0.63839673995971680     
   4.3611111111111107        -0.68344199657440186     
   4.3711111111111105        -0.72633808851242065     
   4.3811111111111121        -0.76610314846038818     
   4.3911111111111119        -0.80169206857681274     
   4.4011111111111116        -0.83201235532760620     
   4.4111111111111114        -0.85594302415847778     
   4.4211111111111112        -0.87235599756240845     
   4.4311111111111110        -0.88014066219329834     
   4.4411111111111108        -0.87823057174682617     
   4.4511111111111106        -0.86563199758529663     
   4.4611111111111121        -0.84145373106002808     
   4.4711111111111119        -0.80493772029876709     
   4.4811111111111117        -0.75548899173736572     
   4.4911111111111115        -0.69270467758178711     
   4.5011111111111113        -0.61640036106109619     
   4.5111111111111111        -0.52663391828536987     
   4.5211111111111109        -0.42372462153434753     
   4.5311111111111106        -0.30826708674430847     
   4.5411111111111104        -0.18113888800144196     
   4.5511111111111120         -4.3501537293195724E-002