 -0.88888888888888884          0.0000000000000000     
 -0.87888888888888883          0.0000000000000000     
 -0.86888888888888882          0.0000000000000000     
 -0.85888888888888881          0.0000000000000000     
 -0.84888888888888880          0.0000000000000000     
 -0.83888888888888880          0.0000000000000000     
 -0.82888888888888879          0.0000000000000000     
 -0.81888888888888878          0.0000000000000000     
 -0.80888888888888888          0.0000000000000000     
 -0.79888888888888887          3.2950518848509902E-038
 -0.78888888888888886          1.6362689755499424E-037
 -0.77888888888888885          3.7615749721909370E-037
 -0.76888888888888884          1.6085397900678024E-036
 -0.75888888888888884          1.5327891016956799E-035
 -0.74888888888888883          7.4093033272667076E-035
 -0.73888888888888882          1.8098921215717676E-034
 -0.72888888888888881          1.1682371655327724E-034
 -0.71888888888888880         -6.7823053164145278E-034
 -0.70888888888888890         -2.2817621862857197E-033
 -0.69888888888888889         -1.8760790656787858E-033
 -0.68888888888888888          7.6226260957055601E-033
 -0.67888888888888888          2.9819302985974468E-032
 -0.66888888888888887          4.2100512376324605E-032
 -0.65888888888888886         -2.3675430416504114E-032
 -0.64888888888888885         -2.3857551225644950E-031
 -0.63888888888888884         -5.1548577608417511E-031
 -0.62888888888888883         -4.0370359840572470E-031
 -0.61888888888888882          8.3473452524207754E-031
 -0.60888888888888881          3.4269147312911960E-030
 -0.59888888888888880          5.6120184224641143E-030
 -0.58888888888888880          2.7849511233127825E-030
 -0.57888888888888879         -1.0242231613516920E-029
 -0.56888888888888878         -3.2205150761003695E-029
 -0.55888888888888877         -4.6501891470845773E-029
 -0.54888888888888876         -2.0289005411802839E-029
 -0.53888888888888875          7.5800016490401531E-029
 -0.52888888888888885          2.2478705605621936E-028
 -0.51888888888888884          3.2052493729521164E-028
 -0.50888888888888884          1.7610681744765010E-028
 -0.49888888888888883         -3.6505879317826101E-028
 -0.48888888888888882         -1.2207211322252031E-027
 -0.47888888888888881         -1.8783698747825708E-027
 -0.46888888888888886         -1.4348700975664808E-027
 -0.45888888888888885          9.3734692614885945E-028
 -0.44888888888888884          5.1239940097545837E-027
 -0.43888888888888883          9.2214889295661479E-027
 -0.42888888888888882          9.4800989506385771E-027
 -0.41888888888888881          1.7889414363378883E-027
 -0.40888888888888886         -1.5206224557484130E-026
 -0.39888888888888885         -3.6505801799145839E-026
 -0.38888888888888884         -4.9119213124491521E-026
 -0.37888888888888883         -3.5221212689215375E-026
 -0.36888888888888882          1.8465774706698019E-026
 -0.35888888888888881          1.0705982634376207E-025
 -0.34888888888888880          1.9613954050527424E-025
 -0.33888888888888880          2.2224871640440695E-025
 -0.32888888888888879          1.1389721661000697E-025
 -0.31888888888888878         -1.6577217972142001E-025
 -0.30888888888888888         -5.6689033624140513E-025
 -0.29888888888888887         -9.1855476563523008E-025
 -0.28888888888888886         -9.4778472457922369E-025
 -0.27888888888888885         -3.7900220684903281E-025
 -0.26888888888888884          8.8985363932057401E-025
 -0.25888888888888884          2.5896869763710578E-024
 -0.24888888888888883          3.9703941283929809E-024
 -0.23888888888888882          3.9140158172186457E-024
 -0.22888888888888881          1.3665282647190938E-024
 -0.21888888888888880         -3.9459106469080890E-024
 -0.20888888888888879         -1.0757879969089854E-023
 -0.19888888888888878         -1.5917275624976795E-023
 -0.18888888888888877         -1.4988835248907788E-023
 -0.17888888888888888         -4.1463641472292742E-024
 -0.16888888888888887          1.6894115773024733E-023
 -0.15888888888888886          4.2037425762592487E-023
 -0.14888888888888885          5.8043798493648564E-023
 -0.13888888888888884          4.7980312547518600E-023
 -0.12888888888888883         -1.3480394112086862E-025
 -0.11888888888888882         -8.1323695962783074E-023
 -0.10888888888888881         -1.6393709746406836E-022
  -9.8888888888888804E-002    -1.9091092762976526E-022
  -8.8888888888888795E-002    -1.0003677036651004E-022
  -7.8888888888888786E-002     1.3555205193691624E-022
  -6.8888888888888777E-002     4.5883482396117700E-022
  -5.8888888888888768E-002     7.0023065333632688E-022
  -4.8888888888888871E-002     6.0573879889438982E-022
  -3.8888888888888862E-002    -5.0822887622504752E-023
  -2.8888888888888853E-002    -1.2808783742994054E-021
  -1.8888888888888844E-002    -2.6886992862121154E-021
  -8.8888888888888351E-003    -3.4028041474704308E-021
   1.1111111111111738E-003    -2.2794656125905347E-021
   1.1111111111111183E-002     1.5399437286966452E-021
   2.1111111111111192E-002     7.8090615807050796E-021
   3.1111111111111200E-002     1.4429921832330350E-020
   4.1111111111111209E-002     1.7323822898869921E-020
   5.1111111111111218E-002     1.1474601797515150E-020
   6.1111111111111227E-002    -6.6359801277145881E-021
   7.1111111111111125E-002    -3.5693095463256031E-020
   8.1111111111111134E-002    -6.6710649449284107E-020
   9.1111111111111143E-002    -8.2757093840457613E-020
  0.10111111111111115         -6.3187700145117834E-020
  0.11111111111111116          7.0336217617020973E-021
  0.12111111111111117          1.2491375922315740E-019
  0.13111111111111118          2.5894630582031109E-019
  0.14111111111111119          3.4765253432503836E-019
  0.15111111111111120          3.1355201357253979E-019
  0.16111111111111120          9.4345377234442686E-020
  0.17111111111111121         -3.1514738648021316E-019
  0.18111111111111122         -8.2612631916354056E-019
  0.19111111111111123         -1.2459705761600498E-018
  0.20111111111111124         -1.3152675285791032E-018
  0.21111111111111125         -7.9818700150485493E-019
  0.22111111111111126          3.9070552744962177E-019
  0.23111111111111127          2.0664692237248742E-018
  0.24111111111111128          3.7215079097526104E-018
  0.25111111111111128          4.5980468030469836E-018
  0.26111111111111129          3.9096699924124979E-018
  0.27111111111111108          1.1779175999846997E-018
  0.28111111111111109         -3.4169542770761522E-018
  0.29111111111111110         -8.8197570330650040E-018
  0.30111111111111111         -1.3167069262425220E-017
  0.31111111111111112         -1.4219352189433528E-017
  0.32111111111111112         -1.0115973868353975E-017
  0.33111111111111113         -2.6142583140522707E-019
  0.34111111111111114          1.3966036398645289E-017
  0.35111111111111115          2.9017962418225691E-017
  0.36111111111111116          3.9724925401385527E-017
  0.37111111111111117          4.0605439311113524E-017
  0.38111111111111118          2.7671517521781275E-017
  0.39111111111111119          2.3024644728717124E-019
  0.40111111111111120         -3.7918257064451308E-017
  0.41111111111111120         -7.8388942036335043E-017
  0.42111111111111121         -1.0945053356721179E-016
  0.43111111111111122         -1.1845264752939779E-016
  0.44111111111111123         -9.4976877933338638E-017
  0.45111111111111124         -3.4083474214435073E-017
  0.46111111111111125          6.0949453477210158E-017
  0.47111111111111126          1.7686144553365337E-016
  0.48111111111111127          2.8999501732186977E-016
  0.49111111111111128          3.6769125846091821E-016
  0.50111111111111128          3.7220692345162889E-016
  0.51111111111111129          2.6804619666680391E-016
  0.52111111111111108          3.3281178503430091E-017
  0.53111111111111109         -3.2581712592221780E-016
  0.54111111111111110         -7.5983821099364019E-016
  0.55111111111111111         -1.1668886817635220E-015
  0.56111111111111112         -1.3970049812802947E-015
  0.57111111111111112         -1.2782905608655260E-015
  0.58111111111111113         -6.6842683884242972E-016
  0.59111111111111114          4.7388248203898936E-016
  0.60111111111111115          2.0154363356857498E-015
  0.61111111111111116          3.6028986868594237E-015
  0.62111111111111117          4.6804203104899335E-015
  0.63111111111111118          4.5988828014048664E-015
  0.64111111111111119          2.8216520357612863E-015
  0.65111111111111120         -8.0659082979205174E-016
  0.66111111111111120         -5.8055985488318120E-015
  0.67111111111111121         -1.0931571742104663E-014
  0.68111111111111122         -1.4291438041671989E-014
  0.69111111111111123         -1.3773508734645033E-014
  0.70111111111111124         -7.7757878667828947E-015
  0.71111111111111125          3.9165227999756955E-015
  0.72111111111111126          1.9383676453754543E-014
  0.73111111111111127          3.4313098017232577E-014
  0.74111111111111128          4.2562334949883263E-014
  0.75111111111111128          3.7705149874729671E-014
  0.76111111111111129          1.5412157498579521E-014
  0.77111111111111130         -2.3873769308029383E-014
  0.78111111111111109         -7.2863495293763736E-014
  0.79111111111111110         -1.1701531128609222E-013
  0.80111111111111111         -1.3670344695647374E-013
  0.81111111111111112         -1.1230096307090001E-013
  0.82111111111111112         -3.1581332059042733E-014
  0.83111111111111113          1.0226808820363448E-013
  0.84111111111111114          2.6468212929557644E-013
  0.85111111111111115          4.0885567501036668E-013
  0.86111111111111116          4.7249953515765553E-013
  0.87111111111111117          3.9308804150074705E-013
  0.88111111111111118          1.2986565490515078E-013
  0.89111111111111119         -3.1216928998364923E-013
  0.90111111111111120         -8.6369789358692328E-013
  0.91111111111111120         -1.3864590898970963E-012
  0.92111111111111121         -1.6898197251202784E-012
  0.93111111111111122         -1.5716204379567777E-012
  0.94111111111111123         -8.7964981436081113E-013
  0.95111111111111124          4.1794158737139264E-013
  0.96111111111111125          2.1722298439164067E-012
  0.97111111111111126          4.0259245590035242E-012
  0.98111111111111127          5.4395637300030941E-012
  0.99111111111111128          5.7835060525424087E-012
   1.0011111111111113          4.4920508285306582E-012
   1.0111111111111113          1.2561490476264980E-012
   1.0211111111111113         -3.7884205321414566E-012
   1.0311111111111111         -9.9339902623341025E-012
   1.0411111111111111         -1.5893251992249446E-011
   1.0511111111111111         -1.9954735780425281E-011
   1.0611111111111111         -2.0314498347384635E-011
   1.0711111111111111         -1.5553150781166813E-011
   1.0811111111111111         -5.1786396351727326E-012
   1.0911111111111111          9.8860086783503220E-012
   1.1011111111111112          2.7012225789491140E-011
   1.1111111111111112          4.1904126002467734E-011
   1.1211111111111114          4.9049736494666263E-011
   1.1311111111111112          4.2586226212115719E-011
   1.1411111111111114          1.7474036106968072E-011
   1.1511111111111112         -2.9232359588515777E-011
   1.1611111111111110         -9.7313622438033320E-011
   1.1711111111111112         -1.8284759817355223E-010
   1.1811111111111110         -2.7850213801805523E-010
   1.1911111111111112         -3.7484532144915761E-010
   1.2011111111111110         -4.6267720210657615E-010
   1.2111111111111112         -5.3615117900918108E-010
   1.2211111111111110         -5.9620963721584985E-010
   1.2311111111111113         -6.5364463841532938E-010
   1.2411111111111111         -7.3092937258323332E-010
   1.2511111111111113         -8.6192247783500875E-010
   1.2611111111111111         -1.0886149759414820E-009
   1.2711111111111113         -1.4542291815189401E-009
   1.2811111111111111         -1.9920778360216218E-009
   1.2911111111111113         -2.7097302179868166E-009
   1.3011111111111111         -3.5678502374736354E-009
   1.3111111111111113         -4.4528305487290254E-009
   1.3211111111111111         -5.1414299484520143E-009
   1.3311111111111114         -5.2543089879009131E-009
   1.3411111111111111         -4.1929890670644454E-009
   1.3511111111111114         -1.0523965032760429E-009
   1.3611111111111112          5.5029247825189032E-009
   1.3711111111111114          1.7415311859281246E-008
   1.3811111111111112          3.7485399673187203E-008
   1.3911111111111114          6.9728166351978871E-008
   1.4011111111111112          1.1987236803179258E-007
   1.4111111111111114          1.9605138845690817E-007
   1.4211111111111112          3.0974544529271952E-007
   1.4311111111111110          4.7705373162898468E-007
   1.4411111111111112          7.2038199050439289E-007
   1.4511111111111110          1.0706625062084640E-006
   1.4611111111111112          1.5702382825111272E-006
   1.4711111111111110          2.2765786980016856E-006
   1.4811111111111113          3.2670150176272728E-006
   1.4911111111111111          4.6447216845990624E-006
   1.5011111111111113          6.5462108977953903E-006
   1.5111111111111111          9.1506253738771193E-006
   1.5211111111111113          1.2691190022451337E-005
   1.5311111111111111          1.7469132217229344E-005
   1.5411111111111113          2.3870483346399851E-005
   1.5511111111111111          3.2386065868195146E-005
   1.5611111111111113          4.3635038309730589E-005
   1.5711111111111111          5.8392142818775028E-005
   1.5811111111111114          7.7618817158509046E-005
   1.5911111111111111          1.0249800106976181E-004
   1.6011111111111114          1.3447229866869748E-004
   1.6111111111111112          1.7528467287775129E-004
   1.6211111111111114          2.2702045680489391E-004
   1.6311111111111112          2.9214893584139645E-004
   1.6411111111111114          3.7356227403506637E-004
   1.6511111111111112          4.7460847417823970E-004
   1.6611111111111114          5.9911492280662060E-004
   1.6711111111111112          7.5139797991141677E-004
   1.6811111111111110          9.3625363660976291E-004
   1.6911111111111112          1.1589238420128822E-003
   1.7011111111111110          1.4250322710722685E-003
   1.7111111111111112          1.7404847312718630E-003
   1.7211111111111110          2.1113280672580004E-003
   1.7311111111111113          2.5435641873627901E-003
   1.7411111111111111          3.0429139733314514E-003
   1.7511111111111113          3.6145341582596302E-003
   1.7611111111111111          4.2626825161278248E-003
   1.7711111111111113          4.9903411418199539E-003
   1.7811111111111111          5.7988041080534458E-003
   1.7911111111111113          6.6872388124465942E-003
   1.8011111111111111          7.6522389426827431E-003
   1.8111111111111113          8.6873890832066536E-003
   1.8211111111111111          9.7828619182109833E-003
   1.8311111111111114          1.0925075970590115E-002
   1.8411111111111111          1.2096437625586987E-002
   1.8511111111111114          1.3275202363729477E-002
   1.8611111111111112          1.4435474760830402E-002
   1.8711111111111114          1.5547379851341248E-002
   1.8811111111111112          1.6577418893575668E-002
   1.8911111111111114          1.7489027231931686E-002
   1.9011111111111112          1.8243344500660896E-002
   1.9111111111111114          1.8800178542733192E-002
   1.9211111111111112          1.9119163975119591E-002
   1.9311111111111110          1.9161082804203033E-002
   1.9411111111111112          1.8889306113123894E-002
   1.9511111111111110          1.8271313980221748E-002
   1.9611111111111112          1.7280234023928642E-002
   1.9711111111111110          1.5896335244178772E-002
   1.9811111111111113          1.4108404517173767E-002
   1.9911111111111111          1.1914942413568497E-002
   2.0011111111111113          9.3251094222068787E-003
   2.0111111111111111          6.3593564555048943E-003
   2.0211111111111113          3.0496986582875252E-003
   2.0311111111111111         -5.6040956405922771E-004
   2.0411111111111113         -4.4166198931634426E-003
   2.0511111111111111         -8.4546571597456932E-003
   2.0611111111111113         -1.2601692229509354E-002
   2.0711111111111111         -1.6778087243437767E-002
   2.0811111111111114         -2.0899452269077301E-002
   2.0911111111111111         -2.4878960102796555E-002
   2.1011111111111114         -2.8629820793867111E-002
   2.1111111111111112         -3.2067842781543732E-002
   2.1211111111111114         -3.5113967955112457E-002
   2.1311111111111112         -3.7696696817874908E-002
   2.1411111111111114         -3.9754312485456467E-002
   2.1511111111111112         -4.1236817836761475E-002
   2.1611111111111114         -4.2107492685317993E-002
   2.1711111111111112         -4.2344067245721817E-002
   2.1811111111111114         -4.1939411312341690E-002
   2.1911111111111112         -4.0901761502027512E-002
   2.2011111111111110         -3.9254464209079742E-002
   2.2111111111111112         -3.7035252898931503E-002
   2.2211111111111110         -3.4295093268156052E-002
   2.2311111111111113         -3.1096633523702621E-002
   2.2411111111111111         -2.7512334287166595E-002
   2.2511111111111113         -2.3622319102287292E-002
   2.2611111111111111         -1.9512055441737175E-002
   2.2711111111111113         -1.5269908122718334E-002
   2.2811111111111111         -1.0984672233462334E-002
   2.2911111111111113         -6.7431475035846233E-003
   2.3011111111111111         -2.6278356090188026E-003
   2.3111111111111113          1.2851781211793423E-003
   2.3211111111111111          4.9280901439487934E-003
   2.3311111111111114          8.2429433241486549E-003
   2.3411111111111111          1.1182851158082485E-002
   2.3511111111111114          1.3712842948734760E-002
   2.3611111111111112          1.5810327604413033E-002
   2.3711111111111114          1.7465155571699142E-002
   2.3811111111111112          1.8679304048418999E-002
   2.3911111111111114          1.9466195255517960E-002
   2.4011111111111112          1.9849678501486778E-002
   2.4111111111111114          1.9862735643982887E-002
   2.4211111111111112          1.9545942544937134E-002
   2.4311111111111114          1.8945768475532532E-002
   2.4411111111111112          1.8112756311893463E-002
   2.4511111111111110          1.7099661752581596E-002
   2.4611111111111112          1.5959616750478745E-002
   2.4711111111111110          1.4744378626346588E-002
   2.4811111111111113          1.3502713292837143E-002
   2.4911111111111111          1.2278972193598747E-002
   2.5011111111111113          1.1111889034509659E-002
   2.5111111111111111          1.0033641010522842E-002
   2.5211111111111113          9.0691875666379929E-003
   2.5311111111111111          8.2358988001942635E-003
   2.5411111111111113          7.5434739701449871E-003
   2.5511111111111111          6.9941394031047821E-003
   2.5611111111111113          6.5831090323626995E-003
   2.5711111111111111          6.2992810271680355E-003
   2.5811111111111114          6.1261393129825592E-003
   2.5911111111111111          6.0428176075220108E-003
   2.6011111111111114          6.0252887196838856E-003
   2.6111111111111112          6.0476246289908886E-003
   2.6211111111111114          6.0832789167761803E-003
   2.6311111111111112          6.1063412576913834E-003
   2.6411111111111114          6.0927113518118858E-003
   2.6511111111111112          6.0211461968719959E-003
   2.6611111111111114          5.8741429820656776E-003
   2.6711111111111112          5.6386222131550312E-003
   2.6811111111111114          5.3063901141285896E-003
   2.6911111111111112          4.8743719235062599E-003
   2.7011111111111110          4.3446118943393230E-003
   2.7111111111111112          3.7240532692521811E-003
   2.7211111111111110          3.0241201166063547E-003
   2.7311111111111113          2.2601315286010504E-003
   2.7411111111111111          1.4505813596770167E-003
   2.7511111111111113          6.1632267897948623E-004
   2.7611111111111111         -2.2030835680197924E-004
   2.7711111111111113         -1.0363949695602059E-003
   2.7811111111111111         -1.8093392718583345E-003
   2.7911111111111113         -2.5177339557558298E-003
   2.8011111111111111         -3.1421827152371407E-003
   2.8111111111111113         -3.6660491023212671E-003
   2.8211111111111111         -4.0761139243841171E-003
   2.8311111111111114         -4.3631209991872311E-003
   2.8411111111111111         -4.5221899636089802E-003
   2.8511111111111114         -4.5530744828283787E-003
   2.8611111111111112         -4.4602481648325920E-003
   2.8711111111111114         -4.2527969926595688E-003
   2.8811111111111112         -3.9441129192709923E-003
   2.8911111111111114         -3.5513860639184713E-003
   2.9011111111111112         -3.0949073843657970E-003
   2.9111111111111114         -2.5972116272896528E-003
   2.9211111111111112         -2.0821020007133484E-003
   2.9311111111111114         -1.5736096538603306E-003
   2.9411111111111112         -1.0949488496407866E-003
   2.9511111111111110         -6.6752987913787365E-004
   2.9611111111111112         -3.1008478254079819E-004
   2.9711111111111110         -3.7952187994960696E-005
   2.9811111111111113          1.3744775787927210E-004
   2.9911111111111111          2.0893642795272171E-004
   3.0011111111111113          1.7370075511280447E-004
   3.0111111111111111          3.3237207389902323E-005
   3.0211111111111113         -2.0685496565420181E-004
   3.0311111111111111         -5.3719803690910339E-004
   3.0411111111111113         -9.4504607841372490E-004
   3.0511111111111111         -1.4147574547678232E-003
   3.0611111111111113         -1.9283160800114274E-003
   3.0711111111111111         -2.4658984038978815E-003
   3.0811111111111114         -3.0064908787608147E-003
   3.0911111111111111         -3.5285660997033119E-003
   3.1011111111111114         -4.0108221583068371E-003
   3.1111111111111112         -4.4329776428639889E-003
   3.1211111111111109         -4.7766049392521381E-003
   3.1311111111111116         -5.0259674899280071E-003
   3.1411111111111114         -5.1688067615032196E-003
   3.1511111111111112         -5.1970230415463448E-003
   3.1611111111111110         -5.1071881316602230E-003
   3.1711111111111117         -4.9008256755769253E-003
   3.1811111111111114         -4.5844265259802341E-003
   3.1911111111111112         -4.1691679507493973E-003
   3.2011111111111110         -3.6703525111079216E-003
   3.2111111111111108         -3.1065952498465776E-003
   3.2211111111111115         -2.4988246150314808E-003
   3.2311111111111113         -1.8691710429266095E-003
   3.2411111111111111         -1.2398278340697289E-003
   3.2511111111111108         -6.3196738483384252E-004
   3.2611111111111115         -6.4780309912748635E-005
   3.2711111111111113          4.4531328603625298E-004
   3.2811111111111111          8.8525353930890560E-004
   3.2911111111111109          1.2457271805033088E-003
   3.3011111111111116          1.5213625738397241E-003
   3.3111111111111113          1.7107566818594933E-003
   3.3211111111111111          1.8163619097322226E-003
   3.3311111111111109          1.8442539731040597E-003
   3.3411111111111116          1.8037975532934070E-003
   3.3511111111111114          1.7072106711566448E-003
   3.3611111111111112          1.5690262662246823E-003
   3.3711111111111109          1.4054414350539446E-003
   3.3811111111111116          1.2335521169006824E-003
   3.3911111111111114          1.0704817250370979E-003
   3.4011111111111112          9.3243108130991459E-004
   3.4111111111111110          8.3369738422334194E-004
   3.4211111111111117          7.8572932397946715E-004
   3.4311111111111114          7.9629744868725538E-004
   3.4411111111111112          8.6886371718719602E-004
   3.4511111111111110          1.0022253263741732E-003
   3.4611111111111117          1.1904884595423937E-003
   3.4711111111111115          1.4233994297683239E-003
   3.4811111111111113          1.6870227409526706E-003
   3.4911111111111111          1.9647225271910429E-003
   3.5011111111111108          2.2383646573871374E-003
   3.5111111111111115          2.4896371178328991E-003
   3.5211111111111113          2.7013691142201424E-003
   3.5311111111111111          2.8587335254997015E-003
   3.5411111111111109          2.9502299148589373E-003
   3.5511111111111116          2.9683760367333889E-003
   3.5611111111111113          2.9100661631673574E-003
   3.5711111111111111          2.7765934355556965E-003
   3.5811111111111109          2.5733632501214743E-003
   3.5911111111111116          2.3093554191291332E-003
   3.6011111111111114          1.9964030943810940E-003
   3.6111111111111112          1.6483659856021404E-003
   3.6211111111111109          1.2802694691345096E-003
   3.6311111111111116          9.0746628120541573E-004
   3.6411111111111114          5.4486206499859691E-004
   3.6511111111111112          2.0622614829335362E-004
   3.6611111111111110         -9.6407013188581914E-005
   3.6711111111111117         -3.5325050703249872E-004
   3.6811111111111114         -5.5719917872920632E-004
   3.6911111111111112         -7.0418824907392263E-004
   3.7011111111111110         -7.9346843995153904E-004
   3.7111111111111117         -8.2777818897739053E-004
   3.7211111111111115         -8.1338122254237533E-004
   3.7311111111111113         -7.5993256177753210E-004
   3.7411111111111111         -6.8013794953003526E-004
   3.7511111111111108         -5.8918248396366835E-004
   3.7611111111111115         -5.0392461707815528E-004
   3.7711111111111113         -4.4187862658873200E-004
   3.7811111111111111         -4.2003902490250766E-004
   3.7911111111111109         -4.5363145181909204E-004
   3.8011111111111116         -5.5489677470177412E-004
   3.8111111111111113         -7.3203007923439145E-004
   3.8211111111111111         -9.8839472047984600E-004
   3.8311111111111109         -1.3221143744885921E-003
   3.8411111111111116         -1.7261138418689370E-003
   3.8511111111111114         -2.1886355243623257E-003
   3.8611111111111112         -2.6942086406052113E-003
   3.8711111111111109         -3.2249996438622475E-003
   3.8811111111111116         -3.7624295800924301E-003
   3.8911111111111114         -4.2889178730547428E-003
   3.9011111111111112         -4.7895996831357479E-003
   3.9111111111111110         -5.2538732998073101E-003
   3.9211111111111117         -5.6766639463603497E-003
   3.9311111111111114         -6.0593201778829098E-003
   3.9411111111111112         -6.4101130701601505E-003
   3.9511111111111110         -6.7443535663187504E-003
   3.9611111111111117         -7.0841810666024685E-003
   3.9711111111111115         -7.4580931104719639E-003
   3.9811111111111113         -7.9003171995282173E-003
   3.9911111111111111         -8.4500880911946297E-003
   4.0011111111111113         -9.1508943587541580E-003
   4.0111111111111111         -1.0049715638160706E-002
   4.0211111111111109         -1.1196243576705456E-002
   4.0311111111111106         -1.2642047367990017E-002
   4.0411111111111104         -1.4439635910093784E-002
   4.0511111111111120         -1.6641363501548767E-002
   4.0611111111111118         -1.9298132508993149E-002
   4.0711111111111116         -2.2457886487245560E-002
   4.0811111111111114         -2.6163887232542038E-002
   4.0911111111111111         -3.0452853068709373E-002
   4.1011111111111109         -3.5352993756532669E-002
   4.1111111111111107         -4.0882050991058350E-002
   4.1211111111111105         -4.7045443207025528E-002
   4.1311111111111121         -5.3834564983844757E-002
   4.1411111111111119         -6.1225328594446182E-002
   4.1511111111111116         -6.9176949560642242E-002
   4.1611111111111114         -7.7630981802940369E-002
   4.1711111111111112         -8.6510606110095978E-002
   4.1811111111111110         -9.5720134675502777E-002
   4.1911111111111108        -0.10514470934867859     
   4.2011111111111106        -0.11465021967887878     
   4.2111111111111121        -0.12408351153135300     
   4.2211111111111119        -0.13327284157276154     
   4.2311111111111117        -0.14202886819839478     
   4.2411111111111115        -0.15014611184597015     
   4.2511111111111113        -0.15740509331226349     
   4.2611111111111111        -0.16357532143592834     
   4.2711111111111109        -0.16841903328895569     
   4.2811111111111106        -0.17169579863548279     
   4.2911111111111104        -0.17316789925098419     
   4.3011111111111120        -0.17260639369487762     
   4.3111111111111118        -0.16979764401912689     
   4.3211111111111116        -0.16455015540122986     
   4.3311111111111114        -0.15670143067836761     
   4.3411111111111111        -0.14612460136413574     
   4.3511111111111109        -0.13273465633392334     
   4.3611111111111107        -0.11649397760629654     
   4.3711111111111105         -9.7417078912258148E-002
   4.3811111111111121         -7.5574301183223724E-002
   4.3911111111111119         -5.1094409078359604E-002
   4.4011111111111116         -2.4165906012058258E-002
   4.4111111111111114          4.9629756249487400E-003
   4.4211111111111112          3.5985711961984634E-002
   4.4311111111111110          6.8540446460247040E-002
   4.4411111111111108         0.10221444815397263     
   4.4511111111111106         0.13655014336109161     
   4.4611111111111121         0.17105256021022797     
   4.4711111111111119         0.20519824326038361     
   4.4811111111111117         0.23844535648822784     
   4.4911111111111115         0.27024480700492859     
   4.5011111111111113         0.30005204677581787     
   4.5111111111111111         0.32733932137489319     
   4.5211111111111109         0.35160791873931885     
   4.5311111111111106         0.37240001559257507     
   4.5411111111111104         0.38930976390838623     
   4.5511111111111120         0.40199342370033264     