 -0.88888888888888884          0.0000000000000000     
 -0.87888888888888883          0.0000000000000000     
 -0.86888888888888882         -3.6112299962651588E-037
 -0.85888888888888881         -1.8447159580438856E-033
 -0.84888888888888880         -5.8569643617856361E-030
 -0.83888888888888880         -1.6051450968274981E-029
 -0.82888888888888879         -1.4589599182003680E-027
 -0.81888888888888878         -1.0694460180704927E-026
 -0.80888888888888888         -3.4110268504558775E-026
 -0.79888888888888887         -4.7406238646659026E-026
 -0.78888888888888886          3.1241267673931464E-026
 -0.77888888888888885          2.2644954863612856E-025
 -0.76888888888888884          1.2500890177977220E-025
 -0.75888888888888884         -1.4352977071698013E-024
 -0.74888888888888883         -5.4297351326625608E-024
 -0.73888888888888882         -9.2401975732832969E-024
 -0.72888888888888881         -2.2909956414465685E-024
 -0.71888888888888880          3.2022467383908099E-023
 -0.70888888888888890          9.7380625211532956E-023
 -0.69888888888888889          1.4734452534978617E-022
 -0.68888888888888888          5.8085967842198059E-023
 -0.67888888888888888         -3.2563085121853093E-022
 -0.66888888888888887         -1.0115451558727110E-021
 -0.65888888888888886         -1.5842645344375053E-021
 -0.64888888888888885         -1.0576798620681490E-021
 -0.63888888888888884          1.7588206463189347E-021
 -0.62888888888888883          7.0983979200419555E-021
 -0.61888888888888882          1.2570427085453246E-020
 -0.60888888888888881          1.2224002390887618E-020
 -0.59888888888888880         -1.7301524565247935E-021
 -0.58888888888888880         -3.3169506354850259E-020
 -0.57888888888888879         -7.3457341320419739E-020
 -0.56888888888888878         -9.5178109004387768E-020
 -0.55888888888888877         -5.6483504677952114E-020
 -0.54888888888888876          7.7190446198962767E-020
 -0.53888888888888875          2.9606432974861481E-019
 -0.52888888888888885          5.1031026055565484E-019
 -0.51888888888888884          5.4558966877740633E-019
 -0.50888888888888884          1.9986895014950021E-019
 -0.49888888888888883         -6.3093919835639341E-019
 -0.48888888888888882         -1.7951957554284150E-018
 -0.47888888888888881         -2.7812577045230249E-018
 -0.46888888888888886         -2.7755722853777948E-018
 -0.45888888888888885         -9.5892277358220446E-019
 -0.44888888888888884          2.9839996726597720E-018
 -0.43888888888888883          8.3104263611497651E-018
 -0.42888888888888882          1.2915631171627476E-017
 -0.41888888888888881          1.3603569162947003E-017
 -0.40888888888888886          7.1270708758181417E-018
 -0.39888888888888885         -8.1020909977109344E-018
 -0.38888888888888884         -3.0122149274310476E-017
 -0.37888888888888883         -5.2179770649706664E-017
 -0.36888888888888882         -6.3088701359949897E-017
 -0.35888888888888881         -4.9896616501439849E-017
 -0.34888888888888880         -2.9164301835524591E-018
 -0.33888888888888880          7.7792134533100483E-017
 -0.32888888888888879          1.7646899134638881E-016
 -0.31888888888888878          2.5904022473424097E-016
 -0.30888888888888888          2.7688217967476475E-016
 -0.29888888888888887          1.7922266898813294E-016
 -0.28888888888888886         -6.5693863685793805E-017
 -0.27888888888888885         -4.4419143613888437E-016
 -0.26888888888888884         -8.7376668349818535E-016
 -0.25888888888888884         -1.1954638676347378E-015
 -0.24888888888888883         -1.1963627813500115E-015
 -0.23888888888888882         -6.7188336854193771E-016
 -0.22888888888888881          4.7567893304099732E-016
 -0.21888888888888880          2.1268768606659723E-015
 -0.20888888888888879          3.8695052716230301E-015
 -0.19888888888888878          5.0150258532261679E-015
 -0.18888888888888877          4.7511365501573533E-015
 -0.17888888888888888          2.4303619894036101E-015
 -0.16888888888888887         -2.0730004830229153E-015
 -0.15888888888888886         -8.0706645996775871E-015
 -0.14888888888888885         -1.3992532820080155E-014
 -0.13888888888888884         -1.7659283391602450E-014
 -0.12888888888888883         -1.6892352656104094E-014
 -0.11888888888888882         -1.0299298916429007E-014
 -0.10888888888888881          2.0548151091618391E-015
  -9.8888888888888804E-002     1.8394521542346338E-014
  -8.8888888888888795E-002     3.5561414517314496E-014
  -7.8888888888888786E-002     4.9812594777069383E-014
  -6.8888888888888777E-002     5.7697668528772922E-014
  -5.8888888888888768E-002     5.6497700669320278E-014
  -4.8888888888888871E-002     4.3890530045023052E-014
  -3.8888888888888862E-002     1.7017547513840069E-014
  -2.8888888888888853E-002    -2.8201072594237313E-014
  -1.8888888888888844E-002    -9.6178436308907989E-014
  -8.8888888888888351E-003    -1.8802314035153839E-013
   1.1111111111111738E-003    -2.9504187721435260E-013
   1.1111111111111183E-002    -3.9118705562161959E-013
   2.1111111111111192E-002    -4.2842140425547459E-013
   3.1111111111111200E-002    -3.4032707750021596E-013
   4.1111111111111209E-002    -5.8612701281032797E-014
   5.1111111111111218E-002     4.5635408429597901E-013
   6.1111111111111227E-002     1.1760737782945396E-012
   7.1111111111111125E-002     1.9679397000871290E-012
   8.1111111111111134E-002     2.5808754005457457E-012
   9.1111111111111143E-002     2.6713405792966327E-012
  0.10111111111111115          1.8814251372123447E-012
  0.11111111111111116         -3.4486112967038740E-014
  0.12111111111111117         -3.0587737204212928E-012
  0.13111111111111118         -6.7801120620658573E-012
  0.14111111111111119         -1.0340345767134718E-011
  0.15111111111111120         -1.2511693070482721E-011
  0.16111111111111120         -1.1932850541018780E-011
  0.17111111111111121         -7.4888966555830550E-012
  0.18111111111111122          1.2343415135493419E-012
  0.19111111111111123          1.3540695474600906E-011
  0.20111111111111124          2.7405199637398070E-011
  0.21111111111111125          3.9581227184726231E-011
  0.22111111111111126          4.6108492024465875E-011
  0.23111111111111127          4.3195568649734284E-011
  0.24111111111111128          2.8327246798243166E-011
  0.25111111111111128          1.3349159017767009E-012
  0.26111111111111129         -3.4893223727072709E-011
  0.27111111111111108         -7.4362967172891814E-011
  0.28111111111111109         -1.0876594763731262E-010
  0.29111111111111110         -1.2908574209546941E-010
  0.30111111111111111         -1.2774292734718529E-010
  0.31111111111111112         -1.0078032158800099E-010
  0.32111111111111112         -4.9466885448934406E-011
  0.33111111111111113          1.9262542949594064E-011
  0.34111111111111114          9.3889805652391800E-011
  0.35111111111111115          1.6089360399540453E-010
  0.36111111111111116          2.0834232949962228E-010
  0.37111111111111117          2.2960064405275205E-010
  0.38111111111111118          2.2601712168501820E-010
  0.39111111111111119          2.0751378393413233E-010
  0.40111111111111120          1.9038710885599386E-010
  0.41111111111111120          1.9230775305523196E-010
  0.42111111111111121          2.2533824806103553E-010
  0.43111111111111122          2.8856694811452144E-010
  0.44111111111111123          3.6244376944161161E-010
  0.45111111111111124          4.0689324132259230E-010
  0.46111111111111125          3.6463515540319236E-010
  0.47111111111111126          1.6987337925211676E-010
  0.48111111111111127         -2.3923565906081024E-010
  0.49111111111111128         -9.0788015993936710E-010
  0.50111111111111128         -1.8570515125659881E-009
  0.51111111111111129         -3.0879145906936856E-009
  0.52111111111111108         -4.6056585212284062E-009
  0.53111111111111109         -6.4703287172562796E-009
  0.54111111111111110         -8.8817895260717705E-009
  0.55111111111111111         -1.2305437557813548E-008
  0.56111111111111112         -1.7645344740913060E-008
  0.57111111111111112         -2.6472747549632913E-008
  0.58111111111111113         -4.1321396082594219E-008
  0.59111111111111114         -6.6068167825505952E-008
  0.60111111111111115         -1.0642757075629561E-007
  0.61111111111111116         -1.7060490620224300E-007
  0.62111111111111117         -2.7017327397516055E-007
  0.63111111111111118         -4.2126802668462915E-007
  0.64111111111111119         -6.4622929585311795E-007
  0.65111111111111120         -9.7586337233224185E-007
  0.66111111111111120         -1.4525504639095743E-006
  0.67111111111111121         -2.1344778815546306E-006
  0.68111111111111122         -3.1013566967885708E-006
  0.69111111111111123         -4.4620428525377065E-006
  0.70111111111111124         -6.3645879890827928E-006
  0.71111111111111125         -9.0093144535785541E-006
  0.72111111111111126         -1.2665639587794431E-005
  0.73111111111111127         -1.7693429981591180E-005
  0.74111111111111128         -2.4569821107434109E-005
  0.75111111111111128         -3.3922489819815382E-005
  0.76111111111111129         -4.6570487029384822E-005
  0.77111111111111130         -6.3573832449037582E-005
  0.78111111111111109         -8.6292988271452487E-005
  0.79111111111111110         -1.1645942140603438E-004
  0.80111111111111111         -1.5625833475496620E-004
  0.81111111111111112         -2.0842438971158117E-004
  0.82111111111111112         -2.7635073638521135E-004
  0.83111111111111113         -3.6421144613996148E-004
  0.84111111111111114         -4.7709580394439399E-004
  0.85111111111111115         -6.2115286709740758E-004
  0.86111111111111116         -8.0374284880235791E-004
  0.87111111111111117         -1.0335893603041768E-003
  0.88111111111111118         -1.3209256576374173E-003
  0.89111111111111119         -1.6776260454207659E-003
  0.90111111111111120         -2.1173085551708937E-003
  0.91111111111111120         -2.6553967036306858E-003
  0.92111111111111121         -3.3091218210756779E-003
  0.93111111111111122         -4.0974472649395466E-003
  0.94111111111111123         -5.0408937968313694E-003
  0.95111111111111124         -6.1612478457391262E-003
  0.96111111111111125         -7.4811247177422047E-003
  0.97111111111111126         -9.0233767405152321E-003
  0.98111111111111127         -1.0810325853526592E-002
  0.99111111111111128         -1.2862815521657467E-002
   1.0011111111111113         -1.5199070796370506E-002
   1.0111111111111113         -1.7833383753895760E-002
   1.0211111111111113         -2.0774638280272484E-002
   1.0311111111111111         -2.4024711921811104E-002
   1.0411111111111111         -2.7576789259910583E-002
   1.0511111111111111         -3.1413666903972626E-002
   1.0611111111111111         -3.5506103187799454E-002
   1.0711111111111111         -3.9811324328184128E-002
   1.0811111111111111         -4.4271770864725113E-002
   1.0911111111111111         -4.8814188688993454E-002
   1.1011111111111112         -5.3349193185567856E-002
   1.1111111111111112         -5.7771395891904831E-002
   1.1211111111111114         -6.1960179358720779E-002
   1.1311111111111112         -6.5781235694885254E-002
   1.1411111111111114         -6.9088868796825409E-002
   1.1511111111111112         -7.1729145944118500E-002
   1.1611111111111110         -7.3543846607208252E-002
   1.1711111111111112         -7.4375130236148834E-002
   1.1811111111111110         -7.4070878326892853E-002
   1.1911111111111112         -7.2490535676479340E-002
   1.2011111111111110         -6.9511227309703827E-002
   1.2111111111111112         -6.5033979713916779E-002
   1.2211111111111110         -5.8989774435758591E-002
   1.2311111111111113         -5.1345068961381912E-002
   1.2411111111111111         -4.2106620967388153E-002
   1.2511111111111113         -3.1325224786996841E-002
   1.2611111111111111         -1.9098160788416862E-002
   1.2711111111111113         -5.5701010860502720E-003
   1.2811111111111111          9.0676853433251381E-003
   1.2911111111111113          2.4579932913184166E-002
   1.3011111111111111          4.0691819041967392E-002
   1.3111111111111113          5.7095173746347427E-002
   1.3211111111111111          7.3456302285194397E-002
   1.3311111111111114          8.9425228536128998E-002
   1.3411111111111111         0.10464598238468170     
   1.3511111111111114         0.11876761913299561     
   1.3611111111111112         0.13145548105239868     
   1.3711111111111114         0.14240229129791260     
   1.3811111111111112         0.15133856236934662     
   1.3911111111111114         0.15804190933704376     
   1.4011111111111112         0.16234484314918518     
   1.4111111111111114         0.16414071619510651     
   1.4211111111111112         0.16338741779327393     
   1.4311111111111110         0.16010890901088715     
   1.4411111111111112         0.15439419448375702     
   1.4511111111111110         0.14639411866664886     
   1.4611111111111112         0.13631580770015717     
   1.4711111111111110         0.12441530078649521     
   1.4811111111111113         0.11098848283290863     
   1.4911111111111111          9.6360869705677032E-002
   1.5011111111111113          8.0876626074314117E-002
   1.5111111111111111          6.4887285232543945E-002
   1.5211111111111113          4.8740644007921219E-002
   1.5311111111111111          3.2770317047834396E-002
   1.5411111111111113          1.7286334186792374E-002
   1.5511111111111111          2.5670987088233232E-003
   1.5611111111111113         -1.1147039011120796E-002
   1.5711111111111111         -2.3658420890569687E-002
   1.5811111111111114         -3.4814875572919846E-002
   1.5911111111111111         -4.4510673731565475E-002
   1.6011111111111114         -5.2685730159282684E-002
   1.6111111111111112         -5.9323254972696304E-002
   1.6211111111111114         -6.4446061849594116E-002
   1.6311111111111112         -6.8111814558506012E-002
   1.6411111111111114         -7.0407539606094360E-002
   1.6511111111111112         -7.1443639695644379E-002
   1.6611111111111114         -7.1347832679748535E-002
   1.6711111111111112         -7.0259183645248413E-002
   1.6811111111111110         -6.8322494626045227E-002
   1.6911111111111112         -6.5683253109455109E-002
   1.7011111111111110         -6.2483254820108414E-002
   1.7111111111111112         -5.8857034891843796E-002
   1.7211111111111110         -5.4929096251726151E-002
   1.7311111111111113         -5.0811972469091415E-002
   1.7411111111111111         -4.6605054289102554E-002
   1.7511111111111113         -4.2394090443849564E-002
   1.7611111111111111         -3.8251273334026337E-002
   1.7711111111111113         -3.4235768020153046E-002
   1.7811111111111111         -3.0394602566957474E-002
   1.7911111111111113         -2.6763761416077614E-002
   1.8011111111111111         -2.3369414731860161E-002
   1.8111111111111113         -2.0229198038578033E-002
   1.8211111111111111         -1.7353441566228867E-002
   1.8311111111111114         -1.4746325090527534E-002
   1.8411111111111111         -1.2406894937157631E-002
   1.8511111111111114         -1.0329951532185078E-002
   1.8611111111111112         -8.5068047046661377E-003
   1.8711111111111114         -6.9259195588529110E-003
   1.8811111111111112         -5.5734585039317608E-003
   1.8911111111111114         -4.4337646104395390E-003
   1.9011111111111112         -3.4897881560027599E-003
   1.9111111111111114         -2.7234801091253757E-003
   1.9211111111111112         -2.1161604672670364E-003
   1.9311111111111110         -1.6488713445141912E-003
   1.9411111111111112         -1.3027187669649720E-003
   1.9511111111111110         -1.0592016624286771E-003
   1.9611111111111112         -9.0052298037335277E-004
   1.9711111111111110         -8.0987502587959170E-004
   1.9811111111111113         -7.7168707503005862E-004
   1.9911111111111111         -7.7182857785373926E-004
   2.0011111111111113         -7.9776393249630928E-004
   2.0111111111111111         -8.3865923807024956E-004
   2.0211111111111113         -8.8544405298307538E-004
   2.0311111111111111         -9.3083112733438611E-004
   2.0411111111111113         -9.6929568098857999E-004
   2.0511111111111111         -9.9701283033937216E-004
   2.0611111111111113         -1.0117524070665240E-003
   2.0711111111111111         -1.0127288987860084E-003
   2.0811111111111114         -1.0004064533859491E-003
   2.0911111111111111         -9.7626424394547939E-004
   2.1011111111111114         -9.4253005227074027E-004
   2.1111111111111112         -9.0189388720318675E-004
   2.1211111111111114         -8.5721595678478479E-004
   2.1311111111111112         -8.1124791176989675E-004
   2.1411111111111114         -7.6638488098978996E-004
   2.1511111111111112         -7.2446832200512290E-004
   2.1611111111111114         -6.8665441358461976E-004
   2.1711111111111112         -6.5335904946550727E-004
   2.1811111111111114         -6.2428164528682828E-004
   2.1911111111111112         -5.9850164689123631E-004
   2.2011111111111110         -5.7463173288851976E-004
   2.2111111111111112         -5.5100687313824892E-004
   2.2211111111111110         -5.2588136168196797E-004
   2.2311111111111113         -4.9760896945372224E-004
   2.2411111111111111         -4.6478529111482203E-004
   2.2511111111111113         -4.2633916018530726E-004
   2.2611111111111111         -3.8156961090862751E-004
   2.2711111111111113         -3.3013441134244204E-004
   2.2811111111111111         -2.7200358454138041E-004
   2.2911111111111113         -2.0739602041430771E-004
   2.3011111111111111         -1.3671786291524768E-004
   2.3111111111111113         -6.0519691032823175E-005
   2.3211111111111111          2.0515490177785978E-005
   2.3311111111111114          1.0554830078035593E-004
   2.3411111111111111          1.9352621166035533E-004
   2.3511111111111114          2.8310605557635427E-004
   2.3611111111111112          3.7257536314427853E-004
   2.3711111111111114          4.5979654532857239E-004
   2.3811111111111112          5.4219900630414486E-004
   2.3911111111111114          6.1683752574026585E-004
   2.4011111111111112          6.8052590359002352E-004
   2.4111111111111114          7.3004083242267370E-004
   2.4211111111111112          7.6237961184233427E-004
   2.4311111111111114          7.7504315413534641E-004
   2.4411111111111112          7.6631165575236082E-004
   2.4511111111111110          7.3547865031287074E-004
   2.4611111111111112          6.8301276769489050E-004
   2.4711111111111110          6.1062275199219584E-004
   2.4811111111111113          5.2121194312348962E-004
   2.4911111111111111          4.1871934081427753E-004
   2.5011111111111113          3.0785959097556770E-004
   2.5111111111111111          1.9378839351702482E-004
   2.5211111111111113          8.1731166574172676E-005
   2.5311111111111111         -2.3381220671581104E-005
   2.5411111111111113         -1.1722782801371068E-004
   2.5511111111111111         -1.9633218471426517E-004
   2.5611111111111113         -2.5819908478297293E-004
   2.5711111111111111         -3.0135308043099940E-004
   2.5811111111111114         -3.2529156305827200E-004
   2.5911111111111111         -3.3037477987818420E-004
   2.6011111111111114         -3.1767896143719554E-004
   2.6111111111111112         -2.8883881168439984E-004
   2.6211111111111114         -2.4590245448052883E-004
   2.6311111111111112         -1.9121615332551301E-004
   2.6411111111111114         -1.2734814663417637E-004
   2.6511111111111112         -5.7049379392992705E-005
   2.6611111111111114          1.6762227460276335E-005
   2.6711111111111112          9.1016787337139249E-005
   2.6811111111111114          1.6253294597845525E-004
   2.6911111111111112          2.2810506925452501E-004
   2.7011111111111110          2.8464663773775101E-004
   2.7111111111111112          3.2938344520516694E-004
   2.7211111111111110          3.6007582093589008E-004
   2.7311111111111113          3.7524028448387980E-004
   2.7411111111111111          3.7433908437378705E-004
   2.7511111111111113          3.5791035043075681E-004
   2.7611111111111111          3.2761934562586248E-004
   2.7711111111111113          2.8621993260458112E-004
   2.7811111111111111          2.3742474149912596E-004
   2.7911111111111113          1.8569153326097876E-004
   2.8011111111111111          1.3594467600341886E-004
   2.8111111111111113          9.3260881840251386E-005
   2.8211111111111111          6.2555889599025249E-005
   2.8311111111111114          4.8310390411643311E-005
   2.8411111111111111          5.4366330004995689E-005
   2.8511111111111114          8.3811297372449189E-005
   2.8611111111111112          1.3895203301217407E-004
   2.8711111111111114          2.2136412735562772E-004
   2.8811111111111112          3.3199664903804660E-004
   2.8911111111111114          4.7130961320362985E-004
   2.9011111111111112          6.3942431006580591E-004
   2.9111111111111114          8.3626993000507355E-004
   2.9211111111111112          1.0617120424285531E-003
   2.9311111111111114          1.3156480854377151E-003
   2.9411111111111112          1.5980555908754468E-003
   2.9511111111111110          1.9089860143139958E-003
   2.9611111111111112          2.2485018707811832E-003
   2.9711111111111110          2.6165656745433807E-003
   2.9811111111111113          3.0128948856145144E-003
   2.9911111111111111          3.4367963671684265E-003
   3.0011111111111113          3.8869897834956646E-003
   3.0111111111111111          4.3614204041659832E-003
   3.0211111111111113          4.8570618964731693E-003
   3.0311111111111111          5.3697042167186737E-003
   3.0411111111111113          5.8937361463904381E-003
   3.0511111111111111          6.4219296909868717E-003
   3.0611111111111113          6.9452491588890553E-003
   3.0711111111111111          7.4527012184262276E-003
   3.0811111111111114          7.9312473535537720E-003
   3.0911111111111111          8.3657894283533096E-003
   3.1011111111111114          8.7392469868063927E-003
   3.1111111111111112          9.0327588841319084E-003
   3.1211111111111109          9.2260204255580902E-003
   3.1311111111111116          9.2978058382868767E-003
   3.1411111111111114          9.2266751453280449E-003
   3.1511111111111112          8.9918691664934158E-003
   3.1611111111111110          8.5743535310029984E-003
   3.1711111111111117          7.9579763114452362E-003
   3.1811111111111114          7.1306512691080570E-003
   3.1911111111111112          6.0855047777295113E-003
   3.2011111111111110          4.8218984156847000E-003
   3.2111111111111108          3.3462576102465391E-003
   3.2211111111111115          1.6726281028240919E-003
   3.2311111111111113         -1.7710066458676010E-004
   3.2411111111111111         -2.1733543835580349E-003
   3.2511111111111108         -4.2794346809387207E-003
   3.2611111111111115         -6.4524696208536625E-003
   3.2711111111111113         -8.6447047069668770E-003
   3.2811111111111111         -1.0805066674947739E-002
   3.2911111111111109         -1.2880905531346798E-002
   3.3011111111111116         -1.4819837175309658E-002
   3.3111111111111113         -1.6571601852774620E-002
   3.3211111111111111         -1.8089864403009415E-002
   3.3311111111111109         -1.9333900883793831E-002
   3.3411111111111116         -2.0270094275474548E-002
   3.3511111111111114         -2.0873188972473145E-002
   3.3611111111111112         -2.1127250045537949E-002
   3.3711111111111109         -2.1026264876127243E-002
   3.3811111111111116         -2.0574383437633514E-002
   3.3911111111111114         -1.9785773009061813E-002
   3.4011111111111112         -1.8684085458517075E-002
   3.4111111111111110         -1.7301559448242188E-002
   3.4211111111111117         -1.5677776187658310E-002
   3.4311111111111114         -1.3858112506568432E-002
   3.4411111111111112         -1.1891947127878666E-002
   3.4511111111111110         -9.8307207226753235E-003
   3.4611111111111117         -7.7259573154151440E-003
   3.4711111111111115         -5.6273727677762508E-003
   3.4811111111111113         -3.5811741836369038E-003
   3.4911111111111111         -1.6286502359434962E-003
   3.5011111111111108          1.9490502018015832E-004
   3.5111111111111115          1.8609067192301154E-003
   3.5211111111111113          3.3478382974863052E-003
   3.5311111111111111          4.6412777155637741E-003
   3.5411111111111109          5.7336296886205673E-003
   3.5511111111111116          6.6236085258424282E-003
   3.5611111111111113          7.3155397549271584E-003
   3.5711111111111111          7.8185396268963814E-003
   3.5811111111111109          8.1456424668431282E-003
   3.5911111111111116          8.3129275590181351E-003
   3.6011111111111114          8.3386730402708054E-003
   3.6111111111111112          8.2425568252801895E-003
   3.6211111111111109          8.0449152737855911E-003
   3.6311111111111116          7.7660521492362022E-003
   3.6411111111111114          7.4256239458918571E-003
   3.6511111111111112          7.0421318523585796E-003
   3.6611111111111110          6.6325324587523937E-003
   3.6711111111111117          6.2119932845234871E-003
   3.6811111111111114          5.7937884703278542E-003
   3.6911111111111112          5.3893066942691803E-003
   3.7011111111111110          5.0081401132047176E-003
   3.7111111111111117          4.6582138165831566E-003
   3.7211111111111115          4.3459217995405197E-003
   3.7311111111111113          4.0762485004961491E-003
   3.7411111111111111          3.8528519216924906E-003
   3.7511111111111108          3.6780976224690676E-003
   3.7611111111111115          3.5530391614884138E-003
   3.7711111111111113          3.4773440565913916E-003
   3.7811111111111111          3.4491904079914093E-003
   3.7911111111111109          3.4651688765734434E-003
   3.8011111111111116          3.5202386789023876E-003
   3.8111111111111113          3.6077741533517838E-003
   3.8211111111111111          3.7197261117398739E-003
   3.8311111111111109          3.8468905258923769E-003
   3.8411111111111116          3.9792563766241074E-003
   3.8511111111111114          4.1063888929784298E-003
   3.8611111111111112          4.2178146541118622E-003
   3.8711111111111109          4.3033729307353497E-003
   3.8811111111111116          4.3535279110074043E-003
   3.8911111111111114          4.3596345931291580E-003
   3.9011111111111112          4.3141599744558334E-003
   3.9111111111111110          4.2108632624149323E-003
   3.9211111111111117          4.0449383668601513E-003
   3.9311111111111114          3.8131263572722673E-003
   3.9411111111111112          3.5138125531375408E-003
   3.9511111111111110          3.1471208203583956E-003
   3.9611111111111117          2.7150132227689028E-003
   3.9711111111111115          2.2213871125131845E-003
   3.9811111111111113          1.6721471911296248E-003
   3.9911111111111111          1.0752183152362704E-003
   4.0011111111111113          4.4046936091035604E-004
   4.0111111111111111         -2.2046999947633594E-004
   4.0211111111111109         -8.9449738152325153E-004
   4.0311111111111106         -1.5674148453399539E-003
   4.0411111111111104         -2.2243738640099764E-003
   4.0511111111111120         -2.8503679204732180E-003
   4.0611111111111118         -3.4307625610381365E-003
   4.0711111111111116         -3.9518503472208977E-003
   4.0811111111111114         -4.4014179147779942E-003
   4.0911111111111111         -4.7693038359284401E-003
   4.1011111111111109         -5.0479075871407986E-003
   4.1111111111111107         -5.2326172590255737E-003
   4.1211111111111105         -5.3221192210912704E-003
   4.1311111111111121         -5.3185606375336647E-003
   4.1411111111111119         -5.2275480702519417E-003
   4.1511111111111116         -5.0579742528498173E-003
   4.1611111111111114         -4.8216623254120350E-003
   4.1711111111111112         -4.5328410342335701E-003
   4.1811111111111110         -4.2074560187757015E-003
   4.1911111111111108         -3.8623653817921877E-003
   4.2011111111111106         -3.5144712310284376E-003
   4.2111111111111121         -3.1798686832189560E-003
   4.2211111111111119         -2.8730928897857666E-003
   4.2311111111111117         -2.6065278798341751E-003
   4.2411111111111115         -2.3900179658085108E-003
   4.2511111111111113         -2.2306884638965130E-003
   4.2611111111111111         -2.1329552400857210E-003
   4.2711111111111109         -2.0986811723560095E-003
   4.2811111111111106         -2.1274292375892401E-003
   4.2911111111111104         -2.2167577408254147E-003
   4.3011111111111120         -2.3625087924301624E-003
   4.3111111111111118         -2.5590455625206232E-003
   4.3211111111111116         -2.7994106058031321E-003
   4.3311111111111114         -3.0753922183066607E-003
   4.3411111111111111         -3.3775218762457371E-003
   4.3511111111111109         -3.6950404755771160E-003
   4.3611111111111107         -4.0158876217901707E-003
   4.3711111111111105         -4.3267756700515747E-003
   4.3811111111111121         -4.6133897267282009E-003
   4.3911111111111119         -4.8607215285301208E-003
   4.4011111111111116         -5.0535346381366253E-003
   4.4111111111111114         -5.1769097335636616E-003
   4.4211111111111112         -5.2168276160955429E-003
   4.4311111111111110         -5.1607345230877399E-003
   4.4411111111111108         -4.9980403855443001E-003
   4.4511111111111106         -4.7205244190990925E-003
   4.4611111111111121         -4.3226210400462151E-003
   4.4711111111111119         -3.8015870377421379E-003
   4.4811111111111117         -3.1575653702020645E-003
   4.4911111111111115         -2.3935684002935886E-003
   4.5011111111111113         -1.5154245775192976E-003
   4.5111111111111111         -5.3172011394053698E-004
   4.5211111111111109          5.4623716278001666E-004
   4.5311111111111106          1.7044327687472105E-003
   4.5411111111111104          2.9261666350066662E-003
   4.5511111111111120          4.1921241208910942E-003