 -0.88888888888888884          0.0000000000000000     
 -0.87888888888888883          0.0000000000000000     
 -0.86888888888888882          0.0000000000000000     
 -0.85888888888888881          0.0000000000000000     
 -0.84888888888888880          0.0000000000000000     
 -0.83888888888888880          0.0000000000000000     
 -0.82888888888888879          0.0000000000000000     
 -0.81888888888888878          0.0000000000000000     
 -0.80888888888888888          0.0000000000000000     
 -0.79888888888888887          0.0000000000000000     
 -0.78888888888888886          0.0000000000000000     
 -0.77888888888888885          0.0000000000000000     
 -0.76888888888888884          0.0000000000000000     
 -0.75888888888888884          0.0000000000000000     
 -0.74888888888888883          0.0000000000000000     
 -0.73888888888888882          0.0000000000000000     
 -0.72888888888888881          0.0000000000000000     
 -0.71888888888888880          0.0000000000000000     
 -0.70888888888888890          0.0000000000000000     
 -0.69888888888888889         -1.5509844936607312E-037
 -0.68888888888888888         -5.5966856214393966E-037
 -0.67888888888888888         -3.5969253173335768E-037
 -0.66888888888888887          1.2675489427977728E-036
 -0.65888888888888886          6.1555553761963448E-036
 -0.64888888888888885          1.1530277293914928E-035
 -0.63888888888888884          1.9687456902961624E-036
 -0.62888888888888883         -4.7580665065394942E-035
 -0.61888888888888882         -1.3150266782085950E-034
 -0.60888888888888881         -1.3823051331051990E-034
 -0.59888888888888880          1.6837370117333139E-034
 -0.58888888888888880          9.2990878535154899E-034
 -0.57888888888888879          1.6613112886667613E-033
 -0.56888888888888878          8.1050170185303639E-034
 -0.55888888888888877         -3.5495491903658729E-033
 -0.54888888888888876         -1.0960469488172308E-032
 -0.53888888888888875         -1.4755642631246314E-032
 -0.52888888888888885         -1.6950913228895476E-033
 -0.51888888888888884          3.8560581668484335E-032
 -0.50888888888888884          9.2900041474511137E-032
 -0.49888888888888883          1.0636004541607349E-031
 -0.48888888888888882         -5.1244772562815429E-033
 -0.47888888888888881         -2.8466168516603092E-031
 -0.46888888888888886         -6.2161956234760233E-031
 -0.45888888888888885         -6.8242205466365918E-031
 -0.44888888888888884         -2.1303717749454542E-032
 -0.43888888888888883          1.5463994939304649E-030
 -0.42888888888888882          3.4297332846258237E-030
 -0.41888888888888881          4.0072226261339518E-030
 -0.40888888888888886          1.1650427014107083E-030
 -0.39888888888888885         -6.1195163852960338E-030
 -0.38888888888888884         -1.5675429697593833E-029
 -0.37888888888888883         -2.0997710015518116E-029
 -0.36888888888888882         -1.2958506783351837E-029
 -0.35888888888888881          1.4655813797012618E-029
 -0.34888888888888880          5.7246082870129921E-029
 -0.33888888888888880          9.3673970451151846E-029
 -0.32888888888888879          8.8975110646960173E-029
 -0.31888888888888878          9.9726668728281603E-030
 -0.30888888888888888         -1.4809744048744322E-028
 -0.29888888888888887         -3.3516701229041004E-028
 -0.28888888888888886         -4.3912175326650893E-028
 -0.27888888888888885         -3.1679681840536405E-028
 -0.26888888888888884          1.3055960945023708E-028
 -0.25888888888888884          8.5645661663013169E-028
 -0.24888888888888883          1.5918217361578770E-027
 -0.23888888888888882          1.8579457729083331E-027
 -0.22888888888888881          1.1235747221213832E-027
 -0.21888888888888880         -8.9546873506612564E-028
 -0.20888888888888879         -3.8859415302563371E-027
 -0.19888888888888878         -6.7180634987505551E-027
 -0.18888888888888877         -7.5735962467863642E-027
 -0.17888888888888888         -4.5606641232531838E-027
 -0.16888888888888887          3.2484668075699285E-027
 -0.15888888888888886          1.4697390784689112E-026
 -0.14888888888888885          2.5908540221246225E-026
 -0.13888888888888884          3.0712028288189673E-026
 -0.12888888888888883          2.2439106848924882E-026
 -0.11888888888888882         -3.1552858872216019E-027
 -0.10888888888888881         -4.4642368939091970E-026
  -9.8888888888888804E-002    -9.2456913978424823E-026
  -8.8888888888888795E-002    -1.2825646956324409E-025
  -7.8888888888888786E-002    -1.2684066145359867E-025
  -6.8888888888888777E-002    -6.1303853895946295E-026
  -5.8888888888888768E-002     8.7459825270495747E-026
  -4.8888888888888871E-002     3.1539457712402588E-025
  -3.8888888888888862E-002     5.7405772921101694E-025
  -2.8888888888888853E-002     7.4930598962283956E-025
  -1.8888888888888844E-002     6.5642259771752963E-025
  -8.8888888888888351E-003     7.9667740745610407E-026
   1.1111111111111738E-003    -1.1148966243107902E-024
   1.1111111111111183E-002    -2.7897726702951837E-024
   2.1111111111111192E-002    -4.3275019938556703E-024
   3.1111111111111200E-002    -4.5472356491309097E-024
   4.1111111111111209E-002    -1.9545573122072538E-024
   5.1111111111111218E-002     4.5034388805339443E-024
   6.1111111111111227E-002     1.4219329834857279E-023
   7.1111111111111125E-002     2.3685941531991680E-023
   8.1111111111111134E-002     2.6140286601082363E-023
   9.1111111111111143E-002     1.3216071523954396E-023
  0.10111111111111115         -2.0682162731023614E-023
  0.11111111111111116         -7.1889922967411214E-023
  0.12111111111111117         -1.2155652351859197E-022
  0.13111111111111118         -1.3493954246477920E-022
  0.14111111111111119         -7.0975702598019721E-023
  0.15111111111111120          9.5608376612750672E-023
  0.16111111111111120          3.4404397546254390E-022
  0.17111111111111121          5.8260631744033577E-022
  0.18111111111111122          6.4979197252910097E-022
  0.19111111111111123          3.6157049577973535E-022
  0.20111111111111124         -3.8969153165001534E-022
  0.21111111111111125         -1.5077865775126670E-021
  0.22111111111111126         -2.5950509702024620E-021
  0.23111111111111127         -2.9669886128897395E-021
  0.24111111111111128         -1.8518075813456508E-021
  0.25111111111111128          1.2131159041167426E-021
  0.26111111111111129          5.8849849498409683E-021
  0.27111111111111108          1.0641380504668498E-020
  0.28111111111111109          1.2827268281238095E-020
  0.29111111111111110          9.3777773006692187E-021
  0.30111111111111111         -1.7458040627295535E-021
  0.31111111111111112         -1.9742709036302380E-020
  0.32111111111111112         -3.9535478655535556E-020
  0.33111111111111113         -5.1722401706113204E-020
  0.34111111111111114         -4.4804480217004828E-020
  0.35111111111111115         -9.8987976890010570E-021
  0.36111111111111116          5.3022749016092171E-020
  0.37111111111111117          1.2967648424447873E-019
  0.38111111111111118          1.9002528114026897E-019
  0.39111111111111119          1.9389543950655438E-019
  0.40111111111111120          1.0488190694191512E-019
  0.41111111111111120         -8.9633194241018045E-020
  0.42111111111111121         -3.5869219017774763E-019
  0.43111111111111122         -6.1785976681191666E-019
  0.44111111111111123         -7.3928848486741743E-019
  0.45111111111111124         -5.8770138206369268E-019
  0.46111111111111125         -7.9193625610973313E-020
  0.47111111111111126          7.5243926073972689E-019
  0.48111111111111127          1.7084044500417480E-018
  0.49111111111111128          2.4279111690539012E-018
  0.50111111111111128          2.4655623625857836E-018
  0.51111111111111129          1.4457054325774370E-018
  0.52111111111111108         -7.3676853083006292E-019
  0.53111111111111109         -3.7350591961377604E-018
  0.54111111111111110         -6.6774589218164749E-018
  0.55111111111111111         -8.2865042978347315E-018
  0.56111111111111112         -7.2298885987778705E-018
  0.57111111111111112         -2.6608441955730681E-018
  0.58111111111111113          5.1955669223792572E-018
  0.59111111111111114          1.4639412702461432E-017
  0.60111111111111115          2.2531144225774618E-017
  0.61111111111111116          2.4948281780940323E-017
  0.62111111111111117          1.8464203210678026E-017
  0.63111111111111118          1.7856699434942543E-018
  0.64111111111111119         -2.2782858594896955E-017
  0.65111111111111120         -4.8740082347470257E-017
  0.66111111111111120         -6.6280970014804343E-017
  0.67111111111111121         -6.4948395282871216E-017
  0.68111111111111122         -3.7678033888398558E-017
  0.69111111111111123          1.4878888107240434E-017
  0.70111111111111124          8.1468317081188251E-017
  0.71111111111111125          1.4061673366707445E-016
  0.72111111111111126          1.6550535421915377E-016
  0.73111111111111127          1.3314637952832435E-016
  0.74111111111111128          3.5729954062664723E-017
  0.75111111111111128         -1.0985495209485632E-016
  0.76111111111111129         -2.5926715015476632E-016
  0.77111111111111130         -3.4886912758174359E-016
  0.78111111111111109         -3.1596001822656230E-016
  0.79111111111111110         -1.2743322170843290E-016
  0.80111111111111111          1.9218284218138517E-016
  0.81111111111111112          5.4618701436162935E-016
  0.82111111111111112          7.7746411959305492E-016
  0.83111111111111113          7.1353118446504360E-016
  0.84111111111111114          2.4025684561240323E-016
  0.85111111111111115         -6.1537727123501130E-016
  0.86111111111111116         -1.6265496394367892E-015
  0.87111111111111117         -2.3702571667411554E-015
  0.88111111111111118         -2.3226649265337780E-015
  0.89111111111111119         -1.0492707454989739E-015
  0.90111111111111120          1.5471365948625544E-015
  0.91111111111111120          5.0011912640986634E-015
  0.92111111111111121          8.1926254856209448E-015
  0.93111111111111122          9.4942644037984171E-015
  0.94111111111111123          7.2178396411299618E-015
  0.95111111111111124          3.1713517056175923E-016
  0.96111111111111125         -1.0820019197017167E-014
  0.97111111111111126         -2.3778584827614628E-014
  0.98111111111111127         -3.4067305996598324E-014
  0.99111111111111128         -3.5903178759004450E-014
   1.0011111111111113         -2.3919670023441093E-014
   1.0111111111111113          4.4394987293023928E-015
   1.0211111111111113          4.6465046030621029E-014
   1.0311111111111111          9.2607602901299824E-014
   1.0411111111111111          1.2682178441095204E-013
   1.0511111111111111          1.2960417244620159E-013
   1.0611111111111111          8.3822258487541157E-014
   1.0711111111111111         -1.7587654897450837E-014
   1.0811111111111111         -1.6409761733043177E-013
   1.0911111111111111         -3.2313724179083847E-013
   1.1011111111111112         -4.4176221383231129E-013
   1.1111111111111112         -4.5658680829230303E-013
   1.1211111111111114         -3.1205401218765971E-013
   1.1311111111111112          1.5858584519364005E-014
   1.1411111111111114          4.9659094111115243E-013
   1.1511111111111112          1.0310667250545968E-012
   1.1611111111111110          1.4556989511374518E-012
   1.1711111111111112          1.5706084436489798E-012
   1.1811111111111110          1.1925808647908487E-012
   1.1911111111111112          2.2505363187191180E-013
   1.2011111111111110         -1.2714701253663252E-012
   1.2111111111111112         -3.0320043351017567E-012
   1.2211111111111110         -4.5877832782759143E-012
   1.2311111111111113         -5.3342972400338695E-012
   1.2411111111111111         -4.6714554967353106E-012
   1.2511111111111113         -2.1992984690355488E-012
   1.2611111111111111          2.0713548064266174E-012
   1.2711111111111113          7.5539947561042986E-012
   1.2811111111111111          1.3036263908638990E-011
   1.2911111111111113          1.6803629668271647E-011
   1.3011111111111111          1.6964362206661754E-011
   1.3111111111111113          1.1952371384293947E-011
   1.3211111111111111          1.1228485589237502E-012
   1.3311111111111114         -1.4701663497707074E-011
   1.3411111111111111         -3.2912058495204732E-011
   1.3511111111111114         -4.9192646484064184E-011
   1.3611111111111112         -5.8116546297615201E-011
   1.3711111111111114         -5.4265498344863161E-011
   1.3811111111111112         -3.3739233629148657E-011
   1.3911111111111114          4.2321215976137694E-012
   1.4011111111111112          5.5979228197333697E-011
   1.4111111111111114          1.1284175677195307E-010
   1.4211111111111112          1.6176716910454303E-010
   1.4311111111111110          1.8727336348334234E-010
   1.4411111111111112          1.7470172530842376E-010
   1.4511111111111110          1.1433835128693559E-010
   1.4611111111111112          5.6435706802249186E-012
   1.4711111111111110         -1.3941152399166157E-010
   1.4811111111111113         -2.9496530218331429E-010
   1.4911111111111111         -4.2273076705789947E-010
   1.5011111111111113         -4.7676890213566026E-010
   1.5111111111111111         -4.1140865714162089E-010
   1.5211111111111113         -1.9142520901738180E-010
   1.5311111111111111          1.9708254472838860E-010
   1.5411111111111113          7.3711758918904025E-010
   1.5511111111111111          1.3745531379782960E-009
   1.5611111111111113          2.0168033909584437E-009
   1.5711111111111111          2.5368904754685673E-009
   1.5811111111111114          2.7817790293482858E-009
   1.5911111111111111          2.5818529536536516E-009
   1.6011111111111114          1.7559944609502054E-009
   1.6111111111111112          1.0449943688151109E-010
   1.6211111111111114         -2.6203386127576778E-009
   1.6311111111111112         -6.7781620316509361E-009
   1.6411111111111114         -1.2953297101603312E-008
   1.6511111111111112         -2.2132798704888046E-008
   1.6611111111111114         -3.5969446088301993E-008
   1.6711111111111112         -5.7153592081249371E-008
   1.6811111111111110         -8.9926160740105843E-008
   1.6911111111111112         -1.4077521370836621E-007
   1.7011111111111110         -2.1937361793789023E-007
   1.7111111111111112         -3.3984150604737806E-007
   1.7211111111111110         -5.2244246262489469E-007
   1.7311111111111113         -7.9586459378333529E-007
   1.7411111111111111         -1.2002889206996770E-006
   1.7511111111111113         -1.7915110674948664E-006
   1.7611111111111111         -2.6464492748345947E-006
   1.7711111111111113         -3.8704756661900319E-006
   1.7811111111111111         -5.6070903156069107E-006
   1.7911111111111113         -8.0505815276410431E-006
   1.8011111111111111         -1.1462459042377304E-005
   1.8111111111111113         -1.6192514522117563E-005
   1.8211111111111111         -2.2705595256411470E-005
   1.8311111111111114         -3.1615196348866448E-005
   1.8411111111111111         -4.3725143768824637E-005
   1.8511111111111114         -6.0080750699853525E-005
   1.8611111111111112         -8.2030695921275765E-005
   1.8711111111111114         -1.1130098573630676E-004
   1.8811111111111112         -1.5008222544565797E-004
   1.8911111111111114         -2.0113086793571711E-004
   1.9011111111111112         -2.6788518880493939E-004
   1.9111111111111114         -3.5459524951875210E-004
   1.9211111111111112         -4.6646580449305475E-004
   1.9311111111111110         -6.0980976559221745E-004
   1.9411111111111112         -7.9220830230042338E-004
   1.9511111111111110         -1.0226712329313159E-003
   1.9611111111111112         -1.3117906637489796E-003
   1.9711111111111110         -1.6718758270144463E-003
   1.9811111111111113         -2.1170573309063911E-003
   1.9911111111111111         -2.6633443776518106E-003
   2.0011111111111113         -3.3286183606833220E-003
   2.0111111111111111         -4.1325394995510578E-003
   2.0211111111111113         -5.0963466055691242E-003
   2.0311111111111111         -6.2425271607935429E-003
   2.0411111111111113         -7.5943358242511749E-003
   2.0511111111111111         -9.1751422733068466E-003
   2.0611111111111113         -1.1007589288055897E-002
   2.0711111111111111         -1.3112558051943779E-002
   2.0811111111111114         -1.5507935546338558E-002
   2.0911111111111111         -1.8207192420959473E-002
   2.1011111111111114         -2.1217796951532364E-002
   2.1111111111111112         -2.4539498612284660E-002
   2.1211111111111114         -2.8162529692053795E-002
   2.1311111111111112         -3.2065808773040771E-002
   2.1411111111111114         -3.6215201020240784E-002
   2.1511111111111112         -4.0561966598033905E-002
   2.1611111111111114         -4.5041479170322418E-002
   2.1711111111111112         -4.9572322517633438E-002
   2.1811111111111114         -5.4055921733379364E-002
   2.1911111111111112         -5.8376789093017578E-002
   2.2011111111111110         -6.2403474003076553E-002
   2.2111111111111112         -6.5990351140499115E-002
   2.2211111111111110         -6.8980224430561066E-002
   2.2311111111111113         -7.1207851171493530E-002
   2.2411111111111111         -7.2504274547100067E-002
   2.2511111111111113         -7.2701975703239441E-002
   2.2611111111111111         -7.1640715003013611E-002
   2.2711111111111113         -6.9173879921436310E-002
   2.2811111111111111         -6.5175130963325500E-002
   2.2911111111111113         -5.9545110911130905E-002
   2.3011111111111111         -5.2217919379472733E-002
   2.3111111111111113         -4.3167062103748322E-002
   2.3211111111111111         -3.2410595566034317E-002
   2.3311111111111114         -2.0015126094222069E-002
   2.3411111111111111         -6.0984175652265549E-003
   2.3511111111111114          9.1696670278906822E-003
   2.3611111111111112          2.5568047538399696E-002
   2.3711111111111114          4.2827248573303223E-002
   2.3811111111111112          6.0634184628725052E-002
   2.3911111111111114          7.8638844192028046E-002
   2.4011111111111112          9.6462704241275787E-002
   2.4111111111111114         0.11370869725942612     
   2.4211111111111112         0.12997238337993622     
   2.4311111111111114         0.14485391974449158     
   2.4411111111111112         0.15797051787376404     
   2.4511111111111110         0.16896867752075195     
   2.4611111111111112         0.17753595113754272     
   2.4711111111111110         0.18341167271137238     
   2.4811111111111113         0.18639610707759857     
   2.4911111111111111         0.18635784089565277     
   2.5011111111111113         0.18323889374732971     
   2.5111111111111111         0.17705759406089783     
   2.5211111111111113         0.16790884733200073     
   2.5311111111111111         0.15596185624599457     
   2.5411111111111113         0.14145548641681671     
   2.5511111111111111         0.12469121068716049     
   2.5611111111111113         0.10602422058582306     
   2.5711111111111111          8.5852831602096558E-002
   2.5811111111111114          6.4606711268424988E-002
   2.5911111111111111          4.2734343558549881E-002
   2.6011111111111114          2.0690156146883965E-002
   2.6111111111111112         -1.0782224126160145E-003
   2.6211111111111114         -2.2142115980386734E-002
   2.6311111111111112         -4.2102970182895660E-002
   2.6411111111111114         -6.0602180659770966E-002
   2.6511111111111112         -7.7329292893409729E-002
   2.6611111111111114         -9.2028364539146423E-002
   2.6711111111111112        -0.10450237989425659     
   2.6811111111111114        -0.11461564153432846     
   2.6911111111111112        -0.12229420244693756     
   2.7011111111111110        -0.12752442061901093     
   2.7111111111111112        -0.13034971058368683     
   2.7211111111111110        -0.13086581230163574     
   2.7311111111111113        -0.12921471893787384     
   2.7411111111111111        -0.12557765841484070     
   2.7511111111111113        -0.12016743421554565     
   2.7611111111111111        -0.11322037130594254     
   2.7711111111111113        -0.10498821735382080     
   2.7811111111111111         -9.5730319619178772E-002
   2.7911111111111113         -8.5706278681755066E-002
   2.8011111111111111         -7.5169280171394348E-002
   2.8111111111111113         -6.4360298216342926E-002
   2.8211111111111111         -5.3503248840570450E-002
   2.8311111111111114         -4.2801193892955780E-002
   2.8411111111111111         -3.2433606684207916E-002
   2.8511111111111114         -2.2554656490683556E-002
   2.8611111111111112         -1.3292386196553707E-002
   2.8711111111111114         -4.7487160190939903E-003
   2.8811111111111112          2.9998808167874813E-003
   2.8911111111111114          9.9011352285742760E-003
   2.9011111111111112          1.5925290063023567E-002
   2.9111111111111114          2.1063059568405151E-002
   2.9211111111111112          2.5323353707790375E-002
   2.9311111111111114          2.8730852529406548E-002
   2.9411111111111112          3.1323540955781937E-002
   2.9511111111111110          3.3150229603052139E-002
   2.9611111111111112          3.4268151968717575E-002
   2.9711111111111110          3.4740645438432693E-002
   2.9811111111111113          3.4634932875633240E-002
   2.9911111111111111          3.4020088613033295E-002
   3.0011111111111113          3.2965149730443954E-002
   3.0111111111111111          3.1537510454654694E-002
   3.0211111111111113          2.9801582917571068E-002
   3.0311111111111111          2.7817761525511742E-002
   3.0411111111111113          2.5641709566116333E-002
   3.0511111111111111          2.3323932662606239E-002
   3.0611111111111113          2.0909626036882401E-002
   3.0711111111111111          1.8438765779137611E-002
   3.0811111111111114          1.5946403145790100E-002
   3.0911111111111111          1.3463122770190239E-002
   3.1011111111111114          1.1015610769391060E-002
   3.1111111111111112          8.6272647604346275E-003
   3.1211111111111109          6.3187791965901852E-003
   3.1311111111111116          4.1086440905928612E-003
   3.1411111111111114          2.0135184749960899E-003
   3.1511111111111112          4.8462294216733426E-005
   3.1611111111111110         -1.7729675164446235E-003
   3.1711111111111117         -3.4387332852929831E-003
   3.1811111111111114         -4.9384236335754395E-003
   3.1911111111111112         -6.2634274363517761E-003
   3.2011111111111110         -7.4071506969630718E-003
   3.2111111111111108         -8.3652511239051819E-003
   3.2211111111111115         -9.1358572244644165E-003
   3.2311111111111113         -9.7197331488132477E-003
   3.2411111111111111         -1.0120359249413013E-002
   3.2511111111111108         -1.0343909263610840E-002
   3.2611111111111115         -1.0399132966995239E-002
   3.2711111111111113         -1.0297153145074844E-002
   3.2811111111111111         -1.0051205754280090E-002
   3.2911111111111109         -9.6763437613844872E-003
   3.3011111111111116         -9.1891176998615265E-003
   3.3111111111111113         -8.6072320118546486E-003
   3.3211111111111111         -7.9491874203085899E-003
   3.3311111111111109         -7.2339088656008244E-003
   3.3411111111111116         -6.4803753048181534E-003
   3.3511111111111114         -5.7072634808719158E-003
   3.3611111111111112         -4.9326191656291485E-003
   3.3711111111111109         -4.1735484264791012E-003
   3.3811111111111116         -3.4459263551980257E-003
   3.3911111111111114         -2.7641076594591141E-003
   3.4011111111111112         -2.1406393498182297E-003
   3.4111111111111110         -1.5859851846471429E-003
   3.4211111111111117         -1.1082857381552458E-003
   3.4311111111111114         -7.1317853871732950E-004
   3.4411111111111112         -4.0369565249420702E-004
   3.4511111111111110         -1.8024866585619748E-004
   3.4611111111111117         -4.0697341319173574E-005
   3.4711111111111115          1.9500117559800856E-005
   3.4811111111111113          7.0576893449469935E-006
   3.4911111111111111         -6.9450456066988409E-005
   3.5011111111111108         -1.9998720381408930E-004
   3.5111111111111115         -3.7352999788708985E-004
   3.5211111111111113         -5.7860958622768521E-004
   3.5311111111111111         -8.0388161586597562E-004
   3.5411111111111109         -1.0386946378275752E-003
   3.5511111111111116         -1.2736273929476738E-003
   3.5611111111111113         -1.5009745256975293E-003
   3.5711111111111111         -1.7151697538793087E-003
   3.5811111111111109         -1.9131433218717575E-003
   3.5911111111111116         -2.0946087315678596E-003
   3.6011111111111114         -2.2622668184340000E-003
   3.6111111111111112         -2.4219204206019640E-003
   3.6211111111111109         -2.5825013872236013E-003
   3.6311111111111116         -2.7560186572372913E-003
   3.6411111111111114         -2.9574609361588955E-003
   3.6511111111111112         -3.2046877313405275E-003
   3.6611111111111110         -3.5183387808501720E-003
   3.6711111111111117         -3.9217830635607243E-003
   3.6811111111111114         -4.4411132112145424E-003
   3.6911111111111112         -5.1051760092377663E-003
   3.7011111111111110         -5.9456215240061283E-003
   3.7111111111111117         -6.9969580508768559E-003
   3.7211111111111115         -8.2965930923819542E-003
   3.7311111111111113         -9.8848389461636543E-003
   3.7411111111111111         -1.1804856359958649E-002
   3.7511111111111108         -1.4102494344115257E-002
   3.7611111111111115         -1.6826009377837181E-002
   3.7711111111111113         -2.0025635138154030E-002
   3.7811111111111111         -2.3752991110086441E-002
   3.7911111111111109         -2.8060359880328178E-002
   3.8011111111111116         -3.2999828457832336E-002
   3.8111111111111113         -3.8622342050075531E-002
   3.8211111111111111         -4.4976655393838882E-002
   3.8311111111111109         -5.2108187228441238E-002
   3.8411111111111116         -6.0057722032070160E-002
   3.8511111111111114         -6.8859972059726715E-002
   3.8611111111111112         -7.8541979193687439E-002
   3.8711111111111109         -8.9121289551258087E-002
   3.8811111111111116        -0.10060399770736694     
   3.8911111111111114        -0.11298257112503052     
   3.9011111111111112        -0.12623360753059387     
   3.9111111111111110        -0.14031545817852020     
   3.9211111111111117        -0.15516592562198639     
   3.9311111111111114        -0.17070016264915466     
   3.9411111111111112        -0.18680877983570099     
   3.9511111111111110        -0.20335648953914642     
   3.9611111111111117        -0.22018145024776459     
   3.9711111111111115        -0.23709523677825928     
   3.9811111111111113        -0.25388377904891968     
   3.9911111111111111        -0.27030918002128601     
   4.0011111111111113        -0.28611239790916443     
   4.0111111111111111        -0.30101689696311951     
   4.0211111111111109        -0.31473296880722046     
   4.0311111111111106        -0.32696309685707092     
   4.0411111111111104        -0.33740764856338501     
   4.0511111111111120        -0.34577134251594543     
   4.0611111111111118        -0.35176995396614075     
   4.0711111111111116        -0.35513713955879211     
   4.0811111111111114        -0.35563126206398010     
   4.0911111111111111        -0.35304224491119385     
   4.1011111111111109        -0.34719797968864441     
   4.1111111111111107        -0.33797046542167664     
   4.1211111111111105        -0.32528141140937805     
   4.1311111111111121        -0.30910676717758179     
   4.1411111111111119        -0.28948059678077698     
   4.1511111111111116        -0.26649770140647888     
   4.1611111111111114        -0.24031503498554230     
   4.1711111111111112        -0.21115159988403320     
   4.1811111111111110        -0.17928712069988251     
   4.1911111111111108        -0.14505910873413086     
   4.2011111111111106        -0.10885840654373169     
   4.2111111111111121         -7.1123309433460236E-002
   4.2211111111111119         -3.2332081347703934E-002
   4.2311111111111117          7.0057357661426067E-003
   4.2411111111111115          4.6359188854694366E-002
   4.2511111111111113          8.5186593234539032E-002
   4.2611111111111111         0.12294681370258331     
   4.2711111111111109         0.15911081433296204     
   4.2811111111111106         0.19317315518856049     
   4.2911111111111104         0.22466325759887695     
   4.3011111111111120         0.25315597653388977     
   4.3111111111111118         0.27828112244606018     
   4.3211111111111116         0.29973176121711731     
   4.3311111111111114         0.31727093458175659     
   4.3411111111111111         0.33073654770851135     
   4.3511111111111109         0.34004443883895874     
   4.3611111111111107         0.34518954157829285     
   4.3711111111111105         0.34624505043029785     
   4.3811111111111121         0.34335985779762268     
   4.3911111111111119         0.33675399422645569     
   4.4011111111111116         0.32671266794204712     
   4.4111111111111114         0.31357887387275696     
   4.4211111111111112         0.29774484038352966     
   4.4311111111111110         0.27964255213737488     
   4.4411111111111108         0.25973391532897949     
   4.4511111111111106         0.23850053548812866     
   4.4611111111111121         0.21643356978893280     
   4.4711111111111119         0.19402405619621277     
   4.4811111111111117         0.17175373435020447     
   4.4911111111111115         0.15008662641048431     
   4.5011111111111113         0.12946149706840515     
   4.5111111111111111         0.11028546094894409     
   4.5211111111111109          9.2928759753704071E-002
   4.5311111111111106          7.7720649540424347E-002
   4.5411111111111104          6.4946457743644714E-002
   4.5511111111111120          5.4845672100782394E-002