 -0.88888888888888884          0.0000000000000000     
 -0.87888888888888883          0.0000000000000000     
 -0.86888888888888882         -1.9901330581062491E-033
 -0.85888888888888881         -2.2547059341992308E-030
 -0.84888888888888880         -1.8203718426583103E-027
 -0.83888888888888880         -4.2359750606028396E-027
 -0.82888888888888879         -5.9129044498937652E-026
 -0.81888888888888878         -5.0328551683337305E-025
 -0.80888888888888888         -1.9877172775734453E-024
 -0.79888888888888887         -4.0219607824759207E-024
 -0.78888888888888886         -1.7508162340635600E-024
 -0.77888888888888885          1.3707698317558088E-023
 -0.76888888888888884          4.0182024913512667E-023
 -0.75888888888888884          3.3699216481504326E-023
 -0.74888888888888883         -9.9363909879679964E-023
 -0.73888888888888882         -4.0784542988968544E-022
 -0.72888888888888881         -6.6514822921094631E-022
 -0.71888888888888880         -1.7771949459846364E-022
 -0.70888888888888890          1.9155984334822262E-021
 -0.69888888888888889          5.4353646270979480E-021
 -0.68888888888888888          7.4190895427389421E-021
 -0.67888888888888888          1.6831054484696855E-021
 -0.66888888888888887         -1.7550560859588948E-020
 -0.65888888888888886         -4.6871223289211245E-020
 -0.64888888888888885         -6.4036723495721090E-020
 -0.63888888888888884         -2.8558307250816711E-020
 -0.62888888888888883          9.4872498079792102E-020
 -0.61888888888888882          2.8893250775415332E-019
 -0.60888888888888881          4.3641961230357656E-019
 -0.59888888888888880          3.2370211422463071E-019
 -0.58888888888888880         -2.5393467698279371E-019
 -0.57888888888888879         -1.2832900702662985E-018
 -0.56888888888888878         -2.3157260392473156E-018
 -0.55888888888888877         -2.4312631116911192E-018
 -0.54888888888888876         -5.8087765899801305E-019
 -0.53888888888888875          3.6536526297436605E-018
 -0.52888888888888885          9.1552110314991463E-018
 -0.51888888888888884          1.2820776716424795E-017
 -0.50888888888888884          1.0257532595302625E-017
 -0.49888888888888883         -2.0416227860753126E-018
 -0.48888888888888882         -2.3543393265496585E-017
 -0.47888888888888881         -4.7038889464803900E-017
 -0.46888888888888886         -5.8606844895235481E-017
 -0.45888888888888885         -4.1819707363116866E-017
 -0.44888888888888884          1.3841029555753825E-017
 -0.43888888888888883          1.0289184496005844E-016
 -0.42888888888888882          1.9686718584260767E-016
 -0.41888888888888881          2.4595533917439534E-016
 -0.40888888888888886          1.9296384626342304E-016
 -0.39888888888888885         -1.0375519776720810E-018
 -0.38888888888888884         -3.2598176795134036E-016
 -0.37888888888888883         -6.9914263579003481E-016
 -0.36888888888888882         -9.6351458882010677E-016
 -0.35888888888888881         -9.2084053954184309E-016
 -0.34888888888888880         -4.0272739989555305E-016
 -0.33888888888888880          6.3247044905016228E-016
 -0.32888888888888879          2.0083168120058406E-015
 -0.31888888888888878          3.2906901775562507E-015
 -0.30888888888888888          3.8466684163321069E-015
 -0.29888888888888887          3.0259510886831032E-015
 -0.28888888888888886          4.4163209961897590E-016
 -0.27888888888888885         -3.7325328442719581E-015
 -0.26888888888888884         -8.5774232361961536E-015
 -0.25888888888888884         -1.2486958861389948E-014
 -0.24888888888888883         -1.3536641053143051E-014
 -0.23888888888888882         -1.0108486110335137E-014
 -0.22888888888888881         -1.5842576020177373E-015
 -0.21888888888888880          1.1161497988603896E-014
 -0.20888888888888879          2.5702174627972516E-014
 -0.19888888888888878          3.8501730151513716E-014
 -0.18888888888888877          4.5689495887851414E-014
 -0.17888888888888888          4.3812064300921202E-014
 -0.16888888888888887          3.0216396062782841E-014
 -0.15888888888888886          2.9969815030958221E-015
 -0.14888888888888885         -3.9084756481636007E-014
 -0.13888888888888884         -9.5881961224841827E-014
 -0.12888888888888883         -1.6352197373947774E-013
 -0.11888888888888882         -2.3035393037496021E-013
 -0.10888888888888881         -2.7256400803900294E-013
  -9.8888888888888804E-002    -2.5256988341049169E-013
  -8.8888888888888795E-002    -1.2434087234228924E-013
  -7.8888888888888786E-002     1.5102044506436207E-013
  -6.8888888888888777E-002     5.7951847530837708E-013
  -5.8888888888888768E-002     1.1041656955076973E-012
  -4.8888888888888871E-002     1.5827543269064659E-012
  -3.8888888888888862E-002     1.7897232090433035E-012
  -2.8888888888888853E-002     1.4567078012589496E-012
  -1.8888888888888844E-002     3.5699310803501139E-013
  -8.8888888888888351E-003    -1.5773901282378766E-012
   1.1111111111111738E-003    -4.1366992296898442E-012
   1.1111111111111183E-002    -6.7589410630841673E-012
   2.1111111111111192E-002    -8.5497581236992914E-012
   3.1111111111111200E-002    -8.4328100058428390E-012
   4.1111111111111209E-002    -5.4342771602100548E-012
   5.1111111111111218E-002     9.4025655317242496E-013
   6.1111111111111227E-002     1.0325004740074917E-011
   7.1111111111111125E-002     2.1230765409607777E-011
   8.1111111111111134E-002     3.1025709779086696E-011
   9.1111111111111143E-002     3.6254114293976514E-011
  0.10111111111111115          3.3316800707172689E-011
  0.11111111111111116          1.9439555867806213E-011
  0.12111111111111117         -6.2479726253839019E-012
  0.13111111111111118         -4.1782622500763367E-011
  0.14111111111111119         -8.1879385216421241E-011
  0.15111111111111120         -1.1813769407176267E-010
  0.16111111111111120         -1.4008079418648123E-010
  0.17111111111111121         -1.3699029410840780E-010
  0.18111111111111122         -1.0029670149958037E-010
  0.19111111111111123         -2.6108840783800602E-011
  0.20111111111111124          8.2640609633255480E-011
  0.21111111111111125          2.1495448476738233E-010
  0.22111111111111126          3.5184039015589974E-010
  0.23111111111111127          4.6788750651671762E-010
  0.24111111111111128          5.3429605184618367E-010
  0.25111111111111128          5.2306242670496772E-010
  0.26111111111111129          4.1183842447445329E-010
  0.27111111111111108          1.8887935659961386E-010
  0.28111111111111109         -1.4253163926891688E-010
  0.29111111111111110         -5.6077303911550302E-010
  0.30111111111111111         -1.0242393599924071E-009
  0.31111111111111112         -1.4718809504543628E-009
  0.32111111111111112         -1.8264219026065120E-009
  0.33111111111111113         -2.0007020484769100E-009
  0.34111111111111114         -1.9074706258948027E-009
  0.35111111111111115         -1.4727303820905036E-009
  0.36111111111111116         -6.5238142665791088E-010
  0.37111111111111117          5.4850834985131769E-010
  0.38111111111111118          2.0548469592540641E-009
  0.39111111111111119          3.7002945152408984E-009
  0.40111111111111120          5.2065853850535859E-009
  0.41111111111111120          6.1633844694597428E-009
  0.42111111111111121          6.0068230389731525E-009
  0.43111111111111122          3.9922740668885126E-009
  0.44111111111111123         -8.4684004253432477E-010
  0.45111111111111124         -9.7666958964737205E-009
  0.46111111111111125         -2.4425585110066095E-008
  0.47111111111111126         -4.7066500030723546E-008
  0.48111111111111127         -8.0801989099654747E-008
  0.49111111111111128         -1.3004506627112278E-007
  0.50111111111111128         -2.0114114818170492E-007
  0.51111111111111129         -3.0327308309097134E-007
  0.52111111111111108         -4.4973367607781256E-007
  0.53111111111111109         -6.5968475837507867E-007
  0.54111111111111110         -9.6055737230926752E-007
  0.55111111111111111         -1.3912828080719919E-006
  0.56111111111111112         -2.0066045181010850E-006
  0.57111111111111112         -2.8827666938013863E-006
  0.58111111111111113         -4.1249413698096760E-006
  0.59111111111111114         -5.8768482631421648E-006
  0.60111111111111115         -8.3330887719057500E-006
  0.61111111111111116         -1.1754855222534388E-005
  0.62111111111111117         -1.6489750123582780E-005
  0.63111111111111118         -2.2996639017947018E-005
  0.64111111111111119         -3.1876519642537460E-005
  0.65111111111111120         -4.3910633394261822E-005
  0.66111111111111120         -6.0106987803010270E-005
  0.67111111111111121         -8.1756770669016987E-005
  0.68111111111111122         -1.1050184548366815E-004
  0.69111111111111123         -1.4841464872006327E-004
  0.70111111111111124         -1.9809148216154426E-004
  0.71111111111111125         -2.6275968411937356E-004
  0.72111111111111126         -3.4639859222806990E-004
  0.73111111111111127         -4.5387350837700069E-004
  0.74111111111111128         -5.9108046116307378E-004
  0.75111111111111128         -7.6509820064529777E-004
  0.76111111111111129         -9.8434253595769405E-004
  0.77111111111111130         -1.2587152887135744E-003
  0.78111111111111109         -1.5997393056750298E-003
  0.79111111111111110         -2.0206668414175510E-003
  0.80111111111111111         -2.5365478359162807E-003
  0.81111111111111112         -3.1642413232475519E-003
  0.82111111111111112         -3.9223544299602509E-003
  0.83111111111111113         -4.8310831189155579E-003
  0.84111111111111114         -5.9119397774338722E-003
  0.85111111111111115         -7.1873469278216362E-003
  0.86111111111111116         -8.6800772696733475E-003
  0.87111111111111117         -1.0412519797682762E-002
  0.88111111111111118         -1.2405778281390667E-002
  0.89111111111111119         -1.4678575098514557E-002
  0.90111111111111120         -1.7245985567569733E-002
  0.91111111111111120         -2.0118014886975288E-002
  0.92111111111111121         -2.3298030719161034E-002
  0.93111111111111122         -2.6781126856803894E-002
  0.94111111111111123         -3.0552428215742111E-002
  0.95111111111111124         -3.4585461020469666E-002
  0.96111111111111125         -3.8840621709823608E-002
  0.97111111111111126         -4.3263882398605347E-002
  0.98111111111111127         -4.7785796225070953E-002
  0.99111111111111128         -5.2320942282676697E-002
   1.0011111111111113         -5.6767899543046951E-002
   1.0111111111111113         -6.1009865254163742E-002
   1.0211111111111113         -6.4915969967842102E-002
   1.0311111111111111         -6.8343371152877808E-002
   1.0411111111111111         -7.1140177547931671E-002
   1.0511111111111111         -7.3149159550666809E-002
   1.0611111111111111         -7.4212253093719482E-002
   1.0711111111111111         -7.4175700545310974E-002
   1.0811111111111111         -7.2895795106887817E-002
   1.0911111111111111         -7.0244945585727692E-002
   1.1011111111111112         -6.6117905080318451E-002
   1.1111111111111112         -6.0437902808189392E-002
   1.1211111111111114         -5.3162358701229095E-002
   1.1311111111111112         -4.4287927448749542E-002
   1.1411111111111114         -3.3854588866233826E-002
   1.1511111111111112         -2.1948443725705147E-002
   1.1611111111111110         -8.7030511349439621E-003
   1.1711111111111112          5.7009225711226463E-003
   1.1811111111111110          2.1037861704826355E-002
   1.1911111111111112          3.7041213363409042E-002
   1.2011111111111110          5.3409323096275330E-002
   1.2111111111111112          6.9812946021556854E-002
   1.2211111111111110          8.5904240608215332E-002
   1.2311111111111113         0.10132691264152527     
   1.2411111111111111         0.11572719365358353     
   1.2511111111111113         0.12876518070697784     
   1.2611111111111111         0.14012606441974640     
   1.2711111111111113         0.14953084290027618     
   1.2811111111111111         0.15674592554569244     
   1.2911111111111113         0.16159129142761230     
   1.3011111111111111         0.16394688189029694     
   1.3111111111111113         0.16375675797462463     
   1.3211111111111111         0.16103106737136841     
   1.3311111111111114         0.15584546327590942     
   1.3411111111111111         0.14833824336528778     
   1.3511111111111114         0.13870525360107422     
   1.3611111111111112         0.12719275057315826     
   1.3711111111111114         0.11408864706754684     
   1.3811111111111112          9.9712394177913666E-002
   1.3911111111111114          8.4404163062572479E-002
   1.4011111111111112          6.8513602018356323E-002
   1.4111111111111114          5.2388790994882584E-002
   1.4211111111111112          3.6365721374750137E-002
   1.4311111111111110          2.0758785307407379E-002
   1.4411111111111112          5.8525390923023224E-003
   1.4511111111111110         -8.1049371510744095E-003
   1.4611111111111112         -2.0906960591673851E-002
   1.4711111111111110         -3.2391339540481567E-002
   1.4811111111111113         -4.2441643774509430E-002
   1.4911111111111111         -5.0986781716346741E-002
   1.5011111111111113         -5.7998988777399063E-002
   1.5111111111111111         -6.3490517437458038E-002
   1.5211111111111113         -6.7509256303310394E-002
   1.5311111111111111         -7.0133574306964874E-002
   1.5411111111111113         -7.1466639637947083E-002
   1.5511111111111111         -7.1630559861660004E-002
   1.5611111111111113         -7.0760563015937805E-002
   1.5711111111111111         -6.8999454379081726E-002
   1.5811111111111114         -6.6492527723312378E-002
   1.5911111111111111         -6.3383117318153381E-002
   1.6011111111111114         -5.9808831661939621E-002
   1.6111111111111112         -5.5898532271385193E-002
   1.6211111111111114         -5.1770091056823730E-002
   1.6311111111111112         -4.7528833150863647E-002
   1.6411111111111114         -4.3266680091619492E-002
   1.6511111111111112         -3.9061870425939560E-002
   1.6611111111111114         -3.4979175776243210E-002
   1.6711111111111112         -3.1070517376065254E-002
   1.6811111111111110         -2.7375889942049980E-002
   1.6911111111111112         -2.3924473673105240E-002
   1.7011111111111110         -2.0735848695039749E-002
   1.7111111111111112         -1.7821250483393669E-002
   1.7211111111111110         -1.5184791758656502E-002
   1.7311111111111113         -1.2824616394937038E-002
   1.7411111111111111         -1.0733962990343571E-002
   1.7511111111111113         -8.9021082967519760E-003
   1.7611111111111111         -7.3152119293808937E-003
   1.7711111111111113         -5.9570544399321079E-003
   1.7811111111111111         -4.8096776008605957E-003
   1.7911111111111113         -3.8539571687579155E-003
   1.8011111111111111         -3.0701132491230965E-003
   1.8111111111111113         -2.4381822440773249E-003
   1.8211111111111111         -1.9384466577321291E-003
   1.8311111111111114         -1.5518309082835913E-003
   1.8411111111111111         -1.2602525530382991E-003
   1.8511111111111114         -1.0469227563589811E-003
   1.8611111111111112         -8.9658430078998208E-004
   1.8711111111111114         -7.9568522050976753E-004
   1.8811111111111112         -7.3248217813670635E-004
   1.8911111111111114         -6.9707562215626240E-004
   1.9011111111111112         -6.8137934431433678E-004
   1.9111111111111114         -6.7903002491220832E-004
   1.9211111111111112         -6.8524380913004279E-004
   1.9311111111111110         -6.9662980968132615E-004
   1.9411111111111112         -7.1097287582233548E-004
   1.9511111111111110         -7.2699913289397955E-004
   1.9611111111111112         -7.4413837864995003E-004
   1.9711111111111110         -7.6229427941143513E-004
   1.9811111111111113         -7.8163092257454991E-004
   1.9911111111111111         -8.0238108057528734E-004
   2.0011111111111113         -8.2467979518696666E-004
   2.0111111111111111         -8.4842595970258117E-004
   2.0211111111111113         -8.7317638099193573E-004
   2.0311111111111111         -8.9807488257065415E-004
   2.0411111111111113         -9.2181965010240674E-004
   2.0511111111111111         -9.4266922678798437E-004
   2.0611111111111113         -9.5848541241139174E-004
   2.0711111111111111         -9.6681102877482772E-004
   2.0811111111111114         -9.6498051425442100E-004
   2.0911111111111111         -9.5026270719245076E-004
   2.1011111111111114         -9.2003442114219069E-004
   2.1111111111111112         -8.7198260007426143E-004
   2.1211111111111114         -8.0432824324816465E-004
   2.1311111111111112         -7.1605754783377051E-004
   2.1411111111111114         -6.0713884886354208E-004
   2.1511111111111112         -4.7869991976767778E-004
   2.1611111111111114         -3.3313795574940741E-004
   2.1711111111111112         -1.7413767636753619E-004
   2.1811111111111114         -6.5805670601548627E-006
   2.1911111111111112          1.6366259660571814E-004
   2.2011111111111110          3.3005076693370938E-004
   2.2111111111111112          4.8578451969660819E-004
   2.2211111111111110          6.2427832745015621E-004
   2.2311111111111113          7.3964818147942424E-004
   2.2411111111111111          8.2716206088662148E-004
   2.2511111111111113          8.8360038353130221E-004
   2.2611111111111111          9.0748135698959231E-004
   2.2711111111111113          8.9912360999733210E-004
   2.2811111111111111          8.6054176790639758E-004
   2.2911111111111113          7.9519383143633604E-004
   2.3011111111111111          7.0762098766863346E-004
   2.3111111111111113          6.0303328791633248E-004
   2.3211111111111111          4.8689739196561277E-004
   2.3311111111111114          3.6457707756198943E-004
   2.3411111111111111          2.4106357886921614E-004
   2.3511111111111114          1.2081480963388458E-004
   2.3611111111111112          7.7024915299261920E-006
   2.3711111111111114         -9.4952847575768828E-005
   2.3811111111111112         -1.8429412739351392E-004
   2.3911111111111114         -2.5782996090129018E-004
   2.4011111111111112         -3.1336944084614515E-004
   2.4111111111111114         -3.4902157494798303E-004
   2.4211111111111112         -3.6327287671156228E-004
   2.4311111111111114         -3.5513553302735090E-004
   2.4411111111111112         -3.2433788874186575E-004
   2.4511111111111110         -2.7151597896590829E-004
   2.4611111111111112         -1.9836144929286093E-004
   2.4711111111111110         -1.0768714128062129E-004
   2.4811111111111113         -3.3862436339404667E-006
   2.4911111111111111          1.0972241580020636E-004
   2.5011111111111113          2.2615282796323299E-004
   2.5111111111111111          3.4008978400379419E-004
   2.5211111111111113          4.4577149674296379E-004
   2.5311111111111111          5.3787708748131990E-004
   2.5411111111111113          6.1187782557681203E-004
   2.5511111111111111          6.6431734012439847E-004
   2.5611111111111113          6.9299578899517655E-004
   2.5711111111111111          6.9704727502539754E-004
   2.5811111111111114          6.7691475851461291E-004
   2.5911111111111111          6.3423911342397332E-004
   2.6011111111111114          5.7168607600033283E-004
   2.6111111111111112          4.9273436889052391E-004
   2.6211111111111114          4.0144578088074923E-004
   2.6311111111111112          3.0223053181543946E-004
   2.6411111111111114          1.9961869111284614E-004
   2.6511111111111112          9.8046286439057440E-005
   2.6611111111111114          1.6668208218106884E-006
   2.6711111111111112         -8.5800311353523284E-005
   2.6811111111111114         -1.6117317136377096E-004
   2.6911111111111112         -2.2185490524861962E-004
   2.7011111111111110         -2.6582396822050214E-004
   2.7111111111111112         -2.9157134122215211E-004
   2.7211111111111110         -2.9799397452734411E-004
   2.7311111111111113         -2.8425618074834347E-004
   2.7411111111111111         -2.4963304167613387E-004
   2.7511111111111113         -1.9335093384142965E-004
   2.7611111111111111         -1.1444221308920532E-004
   2.7711111111111113         -1.1631084817054216E-005
   2.7811111111111111          1.1673384142341092E-004
   2.7911111111111113          2.7269133715890348E-004
   2.8011111111111111          4.5862348633818328E-004
   2.8111111111111113          6.7716400371864438E-004
   2.8211111111111111          9.3107356224209070E-004
   2.8311111111111114          1.2230956926941872E-003
   2.8411111111111111          1.5558002050966024E-003
   2.8511111111111114          1.9314130768179893E-003
   2.8611111111111112          2.3516234941780567E-003
   2.8711111111111114          2.8173564933240414E-003
   2.8811111111111112          3.3285047393292189E-003
   2.8911111111111114          3.8836211897432804E-003
   2.9011111111111112          4.4795875437557697E-003
   2.9111111111111114          5.1112794317305088E-003
   2.9211111111111112          5.7712574489414692E-003
   2.9311111111111114          6.4495210535824299E-003
   2.9411111111111112          7.1333567611873150E-003
   2.9511111111111110          7.8073125332593918E-003
   2.9611111111111112          8.4533290937542915E-003
   2.9711111111111110          9.0510463342070580E-003
   2.9811111111111113          9.5782848075032234E-003
   2.9911111111111111          1.0011687874794006E-002
   3.0011111111111113          1.0327484458684921E-002
   3.0111111111111111          1.0502343997359276E-002
   3.0211111111111113          1.0514253750443459E-002
   3.0311111111111111          1.0343406349420547E-002
   3.0411111111111113          9.9730463698506355E-003
   3.0511111111111111          9.3902843073010445E-003
   3.0611111111111113          8.5868472233414650E-003
   3.0711111111111111          7.5597702525556087E-003
   3.0811111111111114          6.3119912520051003E-003
   3.0911111111111111          4.8528211191296577E-003
   3.1011111111111114          3.1982411164790392E-003
   3.1111111111111112          1.3709861086681485E-003
   3.1211111111111109         -5.9963215608149767E-004
   3.1311111111111116         -2.6781971100717783E-003
   3.1411111111111114         -4.8239761963486671E-003
   3.1511111111111112         -6.9920253008604050E-003
   3.1611111111111110         -9.1345859691500664E-003
   3.1711111111111117         -1.1202715337276459E-002
   3.1811111111111114         -1.3148056343197823E-002
   3.1911111111111112         -1.4924633316695690E-002
   3.2011111111111110         -1.6490554437041283E-002
   3.2111111111111108         -1.7809497192502022E-002
   3.2211111111111115         -1.8851902335882187E-002
   3.2311111111111113         -1.9595811143517494E-002
   3.2411111111111111         -2.0027354359626770E-002
   3.2511111111111108         -2.0140901207923889E-002
   3.2611111111111115         -1.9938925281167030E-002
   3.2711111111111113         -1.9431628286838531E-002
   3.2811111111111111         -1.8636366352438927E-002
   3.2911111111111109         -1.7576934769749641E-002
   3.3011111111111116         -1.6282726079225540E-002
   3.3111111111111113         -1.4787790365517139E-002
   3.3211111111111111         -1.3129806146025658E-002
   3.3311111111111109         -1.1348971165716648E-002
   3.3411111111111116         -9.4868140295147896E-003
   3.3511111111111114         -7.5849466957151890E-003
   3.3611111111111112         -5.6837941519916058E-003
   3.3711111111111109         -3.8213632069528103E-003
   3.3811111111111116         -2.0321244373917580E-003
   3.3911111111111114         -3.4609818249009550E-004
   3.4011111111111112          1.2117909500375390E-003
   3.4111111111111110          2.6220518629997969E-003
   3.4211111111111117          3.8706581108272076E-003
   3.4311111111111114          4.9488130025565624E-003
   3.4411111111111112          5.8525190688669682E-003
   3.4511111111111110          6.5820389427244663E-003
   3.4611111111111117          7.1413205005228519E-003
   3.4711111111111115          7.5374604202806950E-003
   3.4811111111111113          7.7802361920475960E-003
   3.4911111111111111          7.8817326575517654E-003
   3.5011111111111108          7.8560374677181244E-003
   3.5111111111111115          7.7189723961055279E-003
   3.5211111111111113          7.4878088198602200E-003
   3.5311111111111111          7.1809035725891590E-003
   3.5411111111111109          6.8172221072018147E-003
   3.5511111111111116          6.4157340675592422E-003
   3.5611111111111113          5.9947101399302483E-003
   3.5711111111111111          5.5709923617541790E-003
   3.5811111111111109          5.1593254320323467E-003
   3.5911111111111116          4.7718435525894165E-003
   3.6011111111111114          4.4177817180752754E-003
   3.6111111111111112          4.1034519672393799E-003
   3.6211111111111109          3.8324703928083181E-003
   3.6311111111111116          3.6061892751604319E-003
   3.6411111111111114          3.4242568071931601E-003
   3.6511111111111112          3.2852070871740580E-003
   3.6611111111111110          3.1869909726083279E-003
   3.6711111111111117          3.1273653730750084E-003
   3.6811111111111114          3.1040848698467016E-003
   3.6911111111111112          3.1148749403655529E-003
   3.7011111111111110          3.1572030857205391E-003
   3.7111111111111117          3.2279060687869787E-003
   3.7211111111111115          3.3227559179067612E-003
   3.7311111111111113          3.4360645804554224E-003
   3.7411111111111111          3.5604154691100121E-003
   3.7511111111111108          3.6865854635834694E-003
   3.7611111111111115          3.8036867044866085E-003
   3.7711111111111113          3.8995235227048397E-003
   3.7811111111111111          3.9611300453543663E-003
   3.7911111111111109          3.9754449389874935E-003
   3.8011111111111116          3.9300643838942051E-003
   3.8111111111111113          3.8140250835567713E-003
   3.8211111111111111          3.6185625940561295E-003
   3.8311111111111109          3.3377958461642265E-003
   3.8411111111111116          2.9692871030420065E-003
   3.8511111111111114          2.5144319515675306E-003
   3.8611111111111112          1.9786423072218895E-003
   3.8711111111111109          1.3712991494685411E-003
   3.8811111111111116          7.0546288043260574E-004
   3.8911111111111114         -2.6506245376367588E-006
   3.9011111111111112         -7.3440873529762030E-004
   3.9111111111111110         -1.4696773141622543E-003
   3.9211111111111117         -2.1878557745367289E-003
   3.9311111111111114         -2.8689552564173937E-003
   3.9411111111111112         -3.4946310333907604E-003
   3.9511111111111110         -4.0490701794624329E-003
   3.9611111111111117         -4.5196507126092911E-003
   3.9711111111111115         -4.8973136581480503E-003
   3.9811111111111113         -5.1766368560492992E-003
   3.9911111111111111         -5.3556389175355434E-003
   4.0011111111111113         -5.4353899322450161E-003
   4.0111111111111111         -5.4195234552025795E-003
   4.0211111111111109         -5.3137540817260742E-003
   4.0311111111111106         -5.1254802383482456E-003
   4.0411111111111104         -4.8635308630764484E-003
   4.0511111111111120         -4.5380652882158756E-003
   4.0611111111111118         -4.1605946607887745E-003
   4.0711111111111116         -3.7440676242113113E-003
   4.0811111111111114         -3.3029296901077032E-003
   4.0911111111111111         -2.8530657291412354E-003
   4.1011111111111109         -2.4115426931530237E-003
   4.1111111111111107         -1.9961106590926647E-003
   4.1211111111111105         -1.6244590515270829E-003
   4.1311111111111121         -1.3132866006344557E-003
   4.1411111111111119         -1.0772794485092163E-003
   4.1511111111111116         -9.2812854563817382E-004
   4.1611111111111114         -8.7371270637959242E-004
   4.1711111111111112         -9.1755035100504756E-004
   4.1811111111111110         -1.0585794225335121E-003
   4.1911111111111108         -1.2912699021399021E-003
   4.2011111111111106         -1.6060288762673736E-003
   4.2111111111111121         -1.9898167811334133E-003
   4.2211111111111119         -2.4268848355859518E-003
   4.2311111111111117         -2.8995375614613295E-003
   4.2411111111111115         -3.3888474572449923E-003
   4.2511111111111113         -3.8752781692892313E-003
   4.2611111111111111         -4.3391962535679340E-003
   4.2711111111111109         -4.7612916678190231E-003
   4.2811111111111106         -5.1229461096227169E-003
   4.2911111111111104         -5.4065897129476070E-003
   4.3011111111111120         -5.5960966274142265E-003
   4.3111111111111118         -5.6772292591631413E-003
   4.3211111111111116         -5.6381230242550373E-003
   4.3311111111111114         -5.4697724990546703E-003
   4.3411111111111111         -5.1664607599377632E-003
   4.3511111111111109         -4.7260671854019165E-003
   4.3611111111111107         -4.1502080857753754E-003
   4.3711111111111105         -3.4441840834915638E-003
   4.3811111111111121         -2.6167475152760744E-003
   4.3911111111111119         -1.6797238495200872E-003
   4.4011111111111116         -6.4754317281767726E-004
   4.4111111111111114          4.6326097799465060E-004
   4.4211111111111112          1.6345359617844224E-003
   4.4311111111111110          2.8469446115195751E-003
   4.4411111111111108          4.0803351439535618E-003
   4.4511111111111106          5.3140572272241116E-003
   4.4611111111111121          6.5272357314825058E-003
   4.4711111111111119          7.6990444213151932E-003
   4.4811111111111117          8.8089946657419205E-003
   4.4911111111111115          9.8372641950845718E-003
   4.5011111111111113          1.0765074752271175E-002
   4.5111111111111111          1.1575095355510712E-002
   4.5211111111111109          1.2251845560967922E-002
   4.5311111111111106          1.2782057747244835E-002
   4.5411111111111104          1.3154971413314342E-002
   4.5511111111111120          1.3362538069486618E-002