 -0.88888888888888884          4.6813868564929714E-032
 -0.87888888888888883          4.3382554221594125E-027
 -0.86888888888888882          1.5995090639604833E-024
 -0.85888888888888881          3.8432553568963373E-022
 -0.84888888888888880          1.3092319284992211E-021
 -0.83888888888888880          2.9338222246180576E-021
 -0.82888888888888879          9.9211832643282733E-021
 -0.81888888888888878          3.6485143517995430E-020
 -0.80888888888888888          9.8371064942933669E-020
 -0.79888888888888887          1.8569019557094048E-019
 -0.78888888888888886          2.4303882130969795E-019
 -0.77888888888888885          2.0974486627792394E-019
 -0.76888888888888884          1.3871699965301220E-019
 -0.75888888888888884          3.0298263574746105E-019
 -0.74888888888888883          1.0970444616881199E-018
 -0.73888888888888882          2.5943111637732841E-018
 -0.72888888888888881          3.9148460750955484E-018
 -0.71888888888888880          2.9645280478354268E-018
 -0.70888888888888890         -2.7198455411004036E-018
 -0.69888888888888889         -1.3732387654101111E-017
 -0.68888888888888888         -2.6054586219393244E-017
 -0.67888888888888888         -3.0114638474348495E-017
 -0.66888888888888887         -1.4466617981221555E-017
 -0.65888888888888886          2.4937000691746324E-017
 -0.64888888888888885          7.3731385792069463E-017
 -0.63888888888888884          9.6267656883280685E-017
 -0.62888888888888883          5.2875614833320972E-017
 -0.61888888888888882         -5.9369763500360489E-017
 -0.60888888888888881         -1.6122366884523229E-016
 -0.59888888888888880         -8.7074907568403270E-017
 -0.58888888888888880          3.2392485431805170E-016
 -0.57888888888888879          1.0270742471161750E-015
 -0.56888888888888878          1.5451807957873442E-015
 -0.55888888888888877          9.1735595187595730E-016
 -0.54888888888888876         -1.9285032267266728E-015
 -0.53888888888888875         -7.2683863322573622E-015
 -0.52888888888888885         -1.3392534490793730E-014
 -0.51888888888888884         -1.5863819182978037E-014
 -0.50888888888888884         -8.2520973629135637E-015
 -0.49888888888888883          1.4881403265698187E-014
 -0.48888888888888882          5.3000210150548968E-014
 -0.47888888888888881          9.4467897317641186E-014
 -0.46888888888888886          1.1462972769344520E-013
 -0.45888888888888885          8.0775968867245057E-014
 -0.44888888888888884         -3.4069986008843436E-014
 -0.43888888888888883         -2.3054480416742629E-013
 -0.42888888888888882         -4.6268566235296849E-013
 -0.41888888888888881         -6.2942365078658136E-013
 -0.40888888888888886         -5.8992063621185475E-013
 -0.39888888888888885         -2.0985272439037750E-013
 -0.38888888888888884          5.6538264738351107E-013
 -0.37888888888888883          1.6298505513961947E-012
 -0.36888888888888882          2.6627818873470321E-012
 -0.35888888888888881          3.1425669358431385E-012
 -0.34888888888888880          2.4640823235999587E-012
 -0.33888888888888880          1.6816135615070615E-013
 -0.32888888888888879         -3.7534827676544147E-012
 -0.31888888888888878         -8.5705002123015461E-012
 -0.30888888888888888         -1.2683477532138276E-011
 -0.29888888888888887         -1.3803695166070273E-011
 -0.28888888888888886         -9.5475441788672732E-012
 -0.27888888888888885          1.5729669086347875E-012
 -0.26888888888888884          1.8967095255506550E-011
 -0.25888888888888884          3.8991976314406429E-011
 -0.24888888888888883          5.4724356990387690E-011
 -0.23888888888888882          5.6987876223546508E-011
 -0.22888888888888881          3.6892825600043366E-011
 -0.21888888888888880         -1.0345126665034510E-011
 -0.20888888888888879         -8.1183136602103190E-011
 -0.19888888888888878         -1.6061058039085196E-010
 -0.18888888888888877         -2.2189179660347946E-010
 -0.17888888888888888         -2.3076242305908323E-010
 -0.16888888888888887         -1.5470474901135844E-010
 -0.15888888888888886          2.3699197118642878E-011
 -0.14888888888888885          2.9234920040366319E-010
 -0.13888888888888884          5.9898214166409502E-010
 -0.12888888888888883          8.5003742933409399E-010
 -0.11888888888888882          9.2399787821051405E-010
 -0.10888888888888881          7.0127748053039340E-010
  -9.8888888888888804E-002     1.0780182996272814E-010
  -8.8888888888888795E-002    -8.3667606176618392E-010
  -7.8888888888888786E-002    -1.9801440487299260E-009
  -6.8888888888888777E-002    -3.0274931450691156E-009
  -5.8888888888888768E-002    -3.5733671577276027E-009
  -4.8888888888888871E-002    -3.1870794892085996E-009
  -3.8888888888888862E-002    -1.5442748191318856E-009
  -2.8888888888888853E-002     1.4175710605357494E-009
  -1.8888888888888844E-002     5.3599591431918725E-009
  -8.8888888888888351E-003     9.4718677345895230E-009
   1.1111111111111738E-003     1.2516690794939223E-008
   1.1111111111111183E-002     1.3031601575619334E-008
   2.1111111111111192E-002     9.6796837212309583E-009
   3.1111111111111200E-002     1.7088540582577139E-009
   4.1111111111111209E-002    -1.0578054876475562E-008
   5.1111111111111218E-002    -2.5476857956618915E-008
   6.1111111111111227E-002    -3.9807687812754011E-008
   7.1111111111111125E-002    -4.9236604127145256E-008
   8.1111111111111134E-002    -4.9048352934732975E-008
   9.1111111111111143E-002    -3.5317885505037339E-008
  0.10111111111111115         -6.2990270777163460E-009
  0.11111111111111116          3.6273071657433320E-008
  0.12111111111111117          8.6347945682518912E-008
  0.13111111111111118          1.3357909267597279E-007
  0.14111111111111119          1.6448370843136217E-007
  0.15111111111111120          1.6483105014231114E-007
  0.16111111111111120          1.2306934138450742E-007
  0.17111111111111121          3.4296245843279394E-008
  0.18111111111111122         -9.5985697612377407E-008
  0.19111111111111123         -2.4923087948991451E-007
  0.20111111111111124         -3.9319007782978588E-007
  0.21111111111111125         -4.8382622708231793E-007
  0.22111111111111126         -4.6993386604299303E-007
  0.23111111111111127         -2.9997084993738099E-007
  0.24111111111111128          7.0040982791397255E-008
  0.25111111111111128          6.6924309294336126E-007
  0.26111111111111129          1.5072896530909929E-006
  0.27111111111111108          2.5742699563124916E-006
  0.28111111111111109          3.8467069316538982E-006
  0.29111111111111110          5.3003332141088322E-006
  0.30111111111111111          6.9293096203182358E-006
  0.31111111111111112          8.7704702309565619E-006
  0.32111111111111112          1.0930301868938841E-005
  0.33111111111111113          1.3611876056529582E-005
  0.34111111111111114          1.7138991097453982E-005
  0.35111111111111115          2.1975376512273215E-005
  0.36111111111111116          2.8738020773744211E-005
  0.37111111111111117          3.8204892916837707E-005
  0.38111111111111118          5.1318813348188996E-005
  0.39111111111111119          6.9190289650578052E-005
  0.40111111111111120          9.3102637038100511E-005
  0.41111111111111120          1.2452264491003007E-004
  0.42111111111111121          1.6511917056050152E-004
  0.43111111111111122          2.1679080964531749E-004
  0.44111111111111123          2.8170211589895189E-004
  0.45111111111111124          3.6232624552212656E-004
  0.46111111111111125          4.6149053378030658E-004
  0.47111111111111126          5.8242073282599449E-004
  0.48111111111111127          7.2877865750342607E-004
  0.49111111111111128          9.0468843700364232E-004
  0.50111111111111128          1.1147446930408478E-003
  0.51111111111111129          1.3639965327456594E-003
  0.52111111111111108          1.6579010989516973E-003
  0.53111111111111109          2.0022371318191290E-003
  0.54111111111111110          2.4029710330069065E-003
  0.55111111111111111          2.8660665266215801E-003
  0.56111111111111112          3.3972298260778189E-003
  0.57111111111111112          4.0015848353505135E-003
  0.58111111111111113          4.6832817606627941E-003
  0.59111111111111114          5.4450412280857563E-003
  0.60111111111111115          6.2876520678400993E-003
  0.61111111111111116          7.2094430215656757E-003
  0.62111111111111117          8.2057612016797066E-003
  0.63111111111111118          9.2684878036379814E-003
  0.64111111111111119          1.0385630652308464E-002
  0.65111111111111120          1.1541035957634449E-002
  0.66111111111111120          1.2714234180748463E-002
  0.67111111111111121          1.3880465179681778E-002
  0.68111111111111122          1.5010879375040531E-002
  0.69111111111111123          1.6072936356067657E-002
  0.70111111111111124          1.7030989751219749E-002
  0.71111111111111125          1.7847046256065369E-002
  0.72111111111111126          1.8481699749827385E-002
  0.73111111111111127          1.8895208835601807E-002
  0.74111111111111128          1.9048701971769333E-002
  0.75111111111111128          1.8905479460954666E-002
  0.76111111111111129          1.8432393670082092E-002
  0.77111111111111130          1.7601251602172852E-002
  0.78111111111111109          1.6390213742852211E-002
  0.79111111111111110          1.4785110950469971E-002
  0.80111111111111111          1.2780642136931419E-002
  0.81111111111111112          1.0381366126239300E-002
  0.82111111111111112          7.6024415902793407E-003
  0.83111111111111113          4.4700424186885357E-003
  0.84111111111111114          1.0214208159595728E-003
  0.85111111111111115         -2.6954167988151312E-003
  0.86111111111111116         -6.6224252805113792E-003
  0.87111111111111117         -1.0692614130675793E-002
  0.88111111111111118         -1.4831488952040672E-002
  0.89111111111111119         -1.8958797678351402E-002
  0.90111111111111120         -2.2990528494119644E-002
  0.91111111111111120         -2.6841105893254280E-002
  0.92111111111111121         -3.0425725504755974E-002
  0.93111111111111122         -3.3662769943475723E-002
  0.94111111111111123         -3.6476217210292816E-002
  0.95111111111111124         -3.8798015564680099E-002
  0.96111111111111125         -4.0570288896560669E-002
  0.97111111111111126         -4.1747342795133591E-002
  0.98111111111111127         -4.2297333478927612E-002
  0.99111111111111128         -4.2203523218631744E-002
   1.0011111111111113         -4.1465066373348236E-002
   1.0111111111111113         -4.0097225457429886E-002
   1.0211111111111113         -3.8131024688482285E-002
   1.0311111111111111         -3.5612296313047409E-002
   1.0411111111111111         -3.2600212842226028E-002
   1.0511111111111111         -2.9165336862206459E-002
   1.0611111111111111         -2.5387294590473175E-002
   1.0711111111111111         -2.1352216601371765E-002
   1.0811111111111111         -1.7150022089481354E-002
   1.0911111111111111         -1.2871702201664448E-002
   1.1011111111111112         -8.6066704243421555E-003
   1.1111111111111112         -4.4402796775102615E-003
   1.1211111111111114         -4.5156254782341421E-004
   1.1311111111111112          3.2887517008930445E-003
   1.1411111111111114          6.7199007607996464E-003
   1.1511111111111112          9.7923977300524712E-003
   1.1611111111111110          1.2468942441046238E-002
   1.1711111111111112          1.4724908396601677E-002
   1.1811111111111110          1.6548383980989456E-002
   1.1911111111111112          1.7939757555723190E-002
   1.2011111111111110          1.8910875543951988E-002
   1.2111111111111112          1.9483815878629684E-002
   1.2211111111111110          1.9689349457621574E-002
   1.2311111111111113          1.9565202295780182E-002
   1.2411111111111111          1.9154209643602371E-002
   1.2511111111111113          1.8502494320273399E-002
   1.2611111111111111          1.7657743766903877E-002
   1.2711111111111113          1.6667667776346207E-002
   1.2811111111111111          1.5578659251332283E-002
   1.2911111111111113          1.4434674754738808E-002
   1.3011111111111111          1.3276293873786926E-002
   1.3111111111111113          1.2139934115111828E-002
   1.3211111111111111          1.1057184077799320E-002
   1.3311111111111114          1.0054232552647591E-002
   1.3411111111111111          9.1513944789767265E-003
   1.3511111111111114          8.3627533167600632E-003
   1.3611111111111112          7.6959654688835144E-003
   1.3711111111111114          7.1522719226777554E-003
   1.3811111111111112          6.7267487756907940E-003
   1.3911111111111114          6.4088213257491589E-003
   1.4011111111111112          6.1830319464206696E-003
   1.4111111111111114          6.0300203040242195E-003
   1.4211111111111112          5.9276535175740719E-003
   1.4311111111111110          5.8522289618849754E-003
   1.4411111111111112          5.7796654291450977E-003
   1.4511111111111110          5.6866207160055637E-003
   1.4611111111111112          5.5514844134449959E-003
   1.4711111111111110          5.3552268072962761E-003
   1.4811111111111113          5.0821015611290932E-003
   1.4911111111111111          4.7202217392623425E-003
   1.5011111111111113          4.2620166204869747E-003
   1.5111111111111111          3.7045849021524191E-003
   1.5211111111111113          3.0499296262860298E-003
   1.5311111111111111          2.3050494492053986E-003
   1.5411111111111113          1.4818458585068583E-003
   1.5511111111111111          5.9680163394659758E-004
   1.5611111111111113         -3.2960015232674778E-004
   1.5711111111111111         -1.2737282086163759E-003
   1.5811111111111114         -2.2099004127085209E-003
   1.5911111111111111         -3.1116681639105082E-003
   1.6011111111111114         -3.9531970396637917E-003
   1.6111111111111112         -4.7106300480663776E-003
   1.6211111111111114         -5.3633223287761211E-003
   1.6311111111111112         -5.8948420919477940E-003
   1.6411111111111114         -6.2936651520431042E-003
   1.6511111111111112         -6.5535334870219231E-003
   1.6611111111111114         -6.6734766587615013E-003
   1.6711111111111112         -6.6575435921549797E-003
   1.6811111111111110         -6.5143099054694176E-003
   1.6911111111111112         -6.2562357634305954E-003
   1.7011111111111110         -5.8989427052438259E-003
   1.7111111111111112         -5.4604634642601013E-003
   1.7211111111111110         -4.9604917876422405E-003
   1.7311111111111113         -4.4196401722729206E-003
   1.7411111111111111         -3.8586917798966169E-003
   1.7511111111111113         -3.2978337258100510E-003
   1.7611111111111111         -2.7558659203350544E-003
   1.7711111111111113         -2.2493973374366760E-003
   1.7811111111111111         -1.7920661484822631E-003
   1.7911111111111113         -1.3938494957983494E-003
   1.8011111111111111         -1.0605370625853539E-003
   1.8111111111111113         -7.9345342237502337E-004
   1.8211111111111111         -5.8949418598785996E-004
   1.8311111111111114         -4.4151363545097411E-004
   1.8411111111111111         -3.3905607415363193E-004
   1.8511111111111114         -2.6937606162391603E-004
   1.8611111111111112         -2.1864679001737386E-004
   1.8711111111111114         -1.7322551866527647E-004
   1.8811111111111112         -1.2083174078725278E-004
   1.8911111111111114         -5.1507100579328835E-005
   1.9011111111111112          4.1741117456695065E-005
   1.9111111111111114          1.6266028978861868E-004
   1.9211111111111112          3.1182647217065096E-004
   1.9311111111111110          4.8700836487114429E-004
   1.9411111111111112          6.8371958332136273E-004
   1.9511111111111110          8.9584139641374350E-004
   1.9611111111111112          1.1162071023136377E-003
   1.9711111111111110          1.3370714150369167E-003
   1.9811111111111113          1.5504343900829554E-003
   1.9911111111111111          1.7482396215200424E-003
   2.0011111111111113          1.9225055584684014E-003
   2.0111111111111111          2.0654685795307159E-003
   2.0211111111111113          2.1698137279599905E-003
   2.0311111111111111          2.2290358319878578E-003
   2.0411111111111113          2.2379311267286539E-003
   2.0511111111111111          2.1931643132120371E-003
   2.0611111111111113          2.0938173402100801E-003
   2.0711111111111111          1.9418023293837905E-003
   2.0811111111111114          1.7420313088223338E-003
   2.0911111111111111          1.5022723237052560E-003
   2.1011111111111114          1.2326812138780951E-003
   2.1111111111111112          9.4506464665755630E-004
   2.1211111111111114          6.5198953961953521E-004
   2.1311111111111112          3.6588602233678102E-004
   2.1411111111111114          9.8292068287264556E-005
   2.1511111111111112         -1.4064897550269961E-004
   2.1611111111111114         -3.4239163505844772E-004
   2.1711111111111112         -4.9992388812825084E-004
   2.1811111111111114         -6.0753588331863284E-004
   2.1911111111111112         -6.6056795185431838E-004
   2.2011111111111110         -6.5528845880180597E-004
   2.2111111111111112         -5.8901339070871472E-004
   2.2211111111111110         -4.6050801756791770E-004
   2.2311111111111113         -2.7061777655035257E-004
   2.2411111111111111         -2.2991976948105730E-005
   2.2511111111111113          2.7529423823580146E-004
   2.2611111111111111          6.1342539265751839E-004
   2.2711111111111113          9.7700313199311495E-004
   2.2811111111111111          1.3487552059814334E-003
   2.2911111111111113          1.7097600502893329E-003
   2.3011111111111111          2.0410395227372646E-003
   2.3111111111111113          2.3252817336469889E-003
   2.3211111111111111          2.5484205689281225E-003
   2.3311111111111114          2.7008126489818096E-003
   2.3411111111111111          2.7778341900557280E-003
   2.3511111111111114          2.7798342052847147E-003
   2.3611111111111112          2.7115021366626024E-003
   2.3711111111111114          2.5808252394199371E-003
   2.3811111111111112          2.3978739045560360E-003
   2.3911111111111114          2.1736584603786469E-003
   2.4011111111111112          1.9192587351426482E-003
   2.4111111111111114          1.6453263815492392E-003
   2.4211111111111112          1.3619526289403439E-003
   2.4311111111111114          1.0787892388179898E-003
   2.4411111111111112          8.0524629447609186E-004
   2.4511111111111110          5.5057823192328215E-004
   2.4611111111111112          3.2371381530538201E-004
   2.4711111111111110          1.3277246034704149E-004
   2.4811111111111113         -1.5685498510720208E-005
   2.4911111111111111         -1.1752839782275259E-004
   2.5011111111111113         -1.7183784802909940E-004
   2.5111111111111111         -1.8139500753022730E-004
   2.5211111111111113         -1.5270496078301221E-004
   2.5311111111111111         -9.5490810053888708E-005
   2.5411111111111113         -2.1705121980630793E-005
   2.5511111111111111          5.5783020798116922E-005
   2.5611111111111113          1.2459186837077141E-004
   2.5711111111111111          1.7406675033271313E-004
   2.5811111111111114          1.9613800395745784E-004
   2.5911111111111111          1.8566760991234332E-004
   2.6011111111111114          1.4027304132468998E-004
   2.6111111111111112          5.9735157265095040E-005
   2.6211111111111114         -5.4811476729810238E-005
   2.6311111111111112         -2.0166582544334233E-004
   2.6411111111111114         -3.7909994716756046E-004
   2.6511111111111112         -5.8549660025164485E-004
   2.6611111111111114         -8.1903603859245777E-004
   2.6711111111111112         -1.0770016815513372E-003
   2.6811111111111114         -1.3548771385103464E-003
   2.6911111111111112         -1.6454673605039716E-003
   2.7011111111111110         -1.9382896134629846E-003
   2.7111111111111112         -2.2194320335984230E-003
   2.7211111111111110         -2.4719918146729469E-003
   2.7311111111111113         -2.6770893018692732E-003
   2.7411111111111111         -2.8153460007160902E-003
   2.7511111111111113         -2.8686185833066702E-003
   2.7611111111111111         -2.8217388316988945E-003
   2.7711111111111113         -2.6640037540346384E-003
   2.7811111111111111         -2.3902102839201689E-003
   2.7911111111111113         -2.0011099986732006E-003
   2.8011111111111111         -1.5032569644972682E-003
   2.8111111111111113         -9.0832653222605586E-004
   2.8211111111111111         -2.3205156321637332E-004
   2.8311111111111114          5.0702632870525122E-004
   2.8411111111111111          1.2887930497527122E-003
   2.8511111111111114          2.0926219876855612E-003
   2.8611111111111112          2.8981580398976803E-003
   2.8711111111111114          3.6857998929917812E-003
   2.8811111111111112          4.4369371607899666E-003
   2.8911111111111114          5.1340474747121334E-003
   2.9011111111111112          5.7607912458479404E-003
   2.9111111111111114          6.3022272661328316E-003
   2.9211111111111112          6.7452313378453255E-003
   2.9311111111111114          7.0791277103126049E-003
   2.9411111111111112          7.2964671999216080E-003
   2.9511111111111110          7.3938164860010147E-003
   2.9611111111111112          7.3723802343010902E-003
   2.9711111111111110          7.2382772341370583E-003
   2.9811111111111113          7.0023317821323872E-003
   2.9911111111111111          6.6793244332075119E-003
   3.0011111111111113          6.2867477536201477E-003
   3.0111111111111111          5.8432184159755707E-003
   3.0211111111111113          5.3667789325118065E-003
   3.0311111111111111          4.8733642324805260E-003
   3.0411111111111113          4.3756826780736446E-003
   3.0511111111111111          3.8826938252896070E-003
   3.0611111111111113          3.3997457940131426E-003
   3.0711111111111111          2.9293007683008909E-003
   3.0811111111111114          2.4720544461160898E-003
   3.0911111111111111          2.0281772594898939E-003
   3.1011111111111114          1.5983817866072059E-003
   3.1111111111111112          1.1845720000565052E-003
   3.1211111111111109          7.8993785427883267E-004
   3.1311111111111116          4.1849477565847337E-004
   3.1411111111111114          7.4207942816428840E-005
   3.1511111111111112         -2.4005453451536596E-004
   3.1611111111111110         -5.2345340372994542E-004
   3.1711111111111117         -7.7773968223482370E-004
   3.1811111111111114         -1.0072824079543352E-003
   3.1911111111111112         -1.2185391969978809E-003
   3.2011111111111110         -1.4190834481269121E-003
   3.2111111111111108         -1.6164168482646346E-003
   3.2211111111111115         -1.8168436363339424E-003
   3.2311111111111113         -2.0246608182787895E-003
   3.2411111111111111         -2.2418277803808451E-003
   3.2511111111111108         -2.4681470822542906E-003
   3.2611111111111115         -2.7018457185477018E-003
   3.2711111111111113         -2.9403441585600376E-003
   3.2811111111111111         -3.1809532083570957E-003
   3.2911111111111109         -3.4212735481560230E-003
   3.3011111111111116         -3.6591684911400080E-003
   3.3111111111111113         -3.8923281244933605E-003
   3.3211111111111111         -4.1175778023898602E-003
   3.3311111111111109         -4.3301922269165516E-003
   3.3411111111111116         -4.5235054567456245E-003
   3.3511111111111114         -4.6890596859157085E-003
   3.3611111111111112         -4.8174052499234676E-003
   3.3711111111111109         -4.8994990065693855E-003
   3.3811111111111116         -4.9284803681075573E-003
   3.3911111111111114         -4.9014729447662830E-003
   3.4011111111111112         -4.8210262320935726E-003
   3.4111111111111110         -4.6958387829363346E-003
   3.4211111111111117         -4.5405593700706959E-003
   3.4311111111111114         -4.3746288865804672E-003
   3.4411111111111112         -4.2203320190310478E-003
   3.4511111111111110         -4.1003837250173092E-003
   3.4611111111111117         -4.0354612283408642E-003
   3.4711111111111115         -4.0420847944915295E-003
   3.4811111111111113         -4.1311611421406269E-003
   3.4911111111111111         -4.3073412962257862E-003
   3.5011111111111108         -4.5691826380789280E-003
   3.5111111111111115         -4.9099358730018139E-003
   3.5211111111111113         -5.3186928853392601E-003
   3.5311111111111111         -5.7815969921648502E-003
   3.5411111111111109         -6.2828734517097473E-003
   3.5511111111111116         -6.8055358715355396E-003
   3.5611111111111113         -7.3317536152899265E-003
   3.5711111111111111         -7.8429644927382469E-003
   3.5811111111111109         -8.3199096843600273E-003
   3.5911111111111116         -8.7427599355578423E-003
   3.6011111111111114         -9.0914946049451828E-003
   3.6111111111111112         -9.3465987592935562E-003
   3.6211111111111109         -9.4900839030742645E-003
   3.6311111111111116         -9.5067285001277924E-003
   3.6411111111111114         -9.3854116275906563E-003
   3.6511111111111112         -9.1203814372420311E-003
   3.6611111111111110         -8.7123215198516846E-003
   3.6711111111111117         -8.1690968945622444E-003
   3.6811111111111114         -7.5061339884996414E-003
   3.6911111111111112         -6.7463847808539867E-003
   3.7011111111111110         -5.9198909439146519E-003
   3.7111111111111117         -5.0629489123821259E-003
   3.7211111111111115         -4.2169135995209217E-003
   3.7311111111111113         -3.4266773145645857E-003
   3.7411111111111111         -2.7388965245336294E-003
   3.7511111111111108         -2.2000642493367195E-003
   3.7611111111111115         -1.8545524217188358E-003
   3.7711111111111113         -1.7427670536562800E-003
   3.7811111111111111         -1.8995448481291533E-003
   3.7911111111111109         -2.3528835736215115E-003
   3.8011111111111116         -3.1230328604578972E-003
   3.8111111111111113         -4.2218957096338272E-003
   3.8211111111111111         -5.6526302359998226E-003
   3.8311111111111109         -7.4092997238039970E-003
   3.8411111111111116         -9.4764437526464462E-003
   3.8511111111111114         -1.1828493326902390E-002
   3.8611111111111112         -1.4429080300033092E-002
   3.8711111111111109         -1.7230369150638580E-002
   3.8811111111111116         -2.0172676071524620E-002
   3.8911111111111114         -2.3184640333056450E-002
   3.9011111111111112         -2.6184216141700745E-002
   3.9111111111111110         -2.9080593958497047E-002
   3.9211111111111117         -3.1777057796716690E-002
   3.9311111111111114         -3.4174531698226929E-002
   3.9411111111111112         -3.6175485700368881E-002
   3.9511111111111110         -3.7687722593545914E-002
   3.9611111111111117         -3.8627639412879944E-002
   3.9711111111111115         -3.8922667503356934E-002
   3.9811111111111113         -3.8512736558914185E-002
   3.9911111111111111         -3.7350904196500778E-002
   4.0011111111111113         -3.5403441637754440E-002
   4.0111111111111111         -3.2649759203195572E-002
   4.0211111111111109         -2.9082601889967918E-002
   4.0311111111111106         -2.4708759039640427E-002
   4.0411111111111104         -1.9550392404198647E-002
   4.0511111111111120         -1.3646790757775307E-002
   4.0611111111111118         -7.0561897009611130E-003
   4.0711111111111116          1.4286769146565348E-004
   4.0811111111111114          7.8511172905564308E-003
   4.0911111111111111          1.5949495136737823E-002
   4.1011111111111109          2.4301541969180107E-002
   4.1111111111111107          3.2757185399532318E-002
   4.1211111111111105          4.1157551109790802E-002
   4.1311111111111121          4.9340270459651947E-002
   4.1411111111111119          5.7144768536090851E-002
   4.1511111111111116          6.4417041838169098E-002
   4.1611111111111114          7.1013592183589935E-002
   4.1711111111111112          7.6804548501968384E-002
   4.1811111111111110          8.1675961613655090E-002
   4.1911111111111108          8.5531651973724365E-002
   4.2011111111111106          8.8294796645641327E-002
   4.2111111111111121          8.9909493923187256E-002
   4.2211111111111119          9.0342387557029724E-002
   4.2311111111111117          8.9584179222583771E-002
   4.2411111111111115          8.7650842964649200E-002
   4.2511111111111113          8.4584176540374756E-002
   4.2611111111111111          8.0451399087905884E-002
   4.2711111111111109          7.5343638658523560E-002
   4.2811111111111106          6.9373309612274170E-002
   4.2911111111111104          6.2670484185218811E-002
   4.3011111111111120          5.5378608405590057E-002
   4.3111111111111118          4.7649905085563660E-002
   4.3211111111111116          3.9640758186578751E-002
   4.3311111111111114          3.1507357954978943E-002
   4.3411111111111111          2.3401698097586632E-002
   4.3511111111111109          1.5467939898371696E-002
   4.3611111111111107          7.8390957787632942E-003
   4.3711111111111105          6.3398224301636219E-004
   4.3811111111111121         -6.0455473139882088E-003
   4.3911111111111119         -1.2116981670260429E-002
   4.4011111111111116         -1.7518945038318634E-002
   4.4111111111111114         -2.2212162613868713E-002
   4.4211111111111112         -2.6179403066635132E-002
   4.4311111111111110         -2.9424291104078293E-002
   4.4411111111111108         -3.1969051808118820E-002
   4.4511111111111106         -3.3851407468318939E-002
   4.4611111111111121         -3.5121005028486252E-002
   4.4711111111111119         -3.5835761576890945E-002
   4.4811111111111117         -3.6058545112609863E-002
   4.4911111111111115         -3.5854410380125046E-002
   4.5011111111111113         -3.5288512706756592E-002
   4.5111111111111111         -3.4424576908349991E-002
   4.5211111111111109         -3.3323742449283600E-002
   4.5311111111111106         -3.2043486833572388E-002
   4.5411111111111104         -3.0636476352810860E-002
   4.5511111111111120         -2.9149260371923447E-002