-2.000000000000000000e+02 -1.238859165459871292e-02
-1.999599949993749135e+02 1.162842661142349243e-02
-1.999199899987498554e+02 -1.136111002415418625e-02
-1.998799849981247689e+02 1.068103034049272537e-02
-1.998399799974996824e+02 -1.048492919653654099e-02
-1.997999749968745959e+02 9.868451394140720367e-03
-1.997599699962495379e+02 -9.729381650686264038e-03
-1.997199649956244514e+02 9.164234623312950134e-03
-1.996799599949993649e+02 -9.071526117622852325e-03
-1.996399549943743068e+02 8.548388257622718811e-03
-1.995999499937492203e+02 -8.493861183524131775e-03
-1.995599449931241338e+02 8.005524985492229462e-03
-1.995199399924990757e+02 -7.982806302607059479e-03
-1.994799349918739892e+02 7.523614447563886642e-03
-1.994399299912489028e+02 -7.527663372457027435e-03
-1.993999249906238163e+02 7.093113381415605545e-03
-1.993599199899987582e+02 -7.119895424693822861e-03
-1.993199149893736717e+02 6.706359796226024628e-03
-1.992799099887485852e+02 -6.752605549991130829e-03
-1.992399049881235271e+02 6.357130128890275955e-03
-1.991998999874984406e+02 -6.420163437724113464e-03
-1.991598949868733541e+02 6.040318869054317474e-03
-1.991198899862482676e+02 -6.117928307503461838e-03
-1.990798849856232096e+02 5.751698277890682220e-03
-1.990398799849981231e+02 -5.842042155563831329e-03
-1.989998749843730366e+02 5.487739574164152145e-03
-1.989598699837479785e+02 -5.589270498603582382e-03
-1.989198649831228920e+02 5.245474167168140411e-03
-1.988798599824978055e+02 -5.356883630156517029e-03
-1.988398549818727474e+02 5.022386088967323303e-03
-1.987998499812476609e+02 -5.142559763044118881e-03
-1.987598449806225744e+02 4.816331434994935989e-03
-1.987198399799974879e+02 -4.944315180182456970e-03
-1.986798349793724299e+02 4.625470843166112900e-03
-1.986398299787473434e+02 -4.760442301630973816e-03
-1.985998249781222569e+02 4.448217339813709259e-03
-1.985598199774971988e+02 -4.589464981108903885e-03
-1.985198149768721123e+02 4.283196292817592621e-03
-1.984798099762470258e+02 -4.430100787431001663e-03
-1.984398049756219393e+02 4.129209090024232864e-03
-1.983997999749968812e+02 -4.281229339540004730e-03
-1.983597949743717948e+02 3.985207993537187576e-03
-1.983197899737467083e+02 -4.141869023442268372e-03
-1.982797849731216502e+02 3.850272390991449356e-03
-1.982397799724965637e+02 -4.011155106127262115e-03
-1.981997749718714772e+02 3.723589470610022545e-03
-1.981597699712464191e+02 -3.888323670253157616e-03
-1.981197649706213326e+02 3.604440484195947647e-03
-1.980797599699962461e+02 -3.772697178646922112e-03
-1.980397549693711596e+02 3.492186311632394791e-03
-1.979997499687461016e+02 -3.663673065602779388e-03
-1.979597449681210151e+02 3.386257681995630264e-03
-1.979197399674959286e+02 -3.560712793841958046e-03
-1.978797349668708705e+02 3.286145394667983055e-03
-1.978397299662457840e+02 -3.463334403932094574e-03
-1.977997249656206975e+02 3.191392868757247925e-03
-1.977597199649956110e+02 -3.371105296537280083e-03
-1.977197149643705529e+02 3.101589623838663101e-03
-1.976797099637454664e+02 -3.283635480329394341e-03
-1.976397049631203799e+02 3.016365459188818932e-03
-1.975996999624953219e+02 -3.200573613867163658e-03
-1.975596949618702354e+02 2.935386030003428459e-03
-1.975196899612451489e+02 -3.121600719168782234e-03
-1.974796849606200908e+02 2.858347957953810692e-03
-1.974396799599950043e+02 -3.046428551897406578e-03
-1.973996749593699178e+02 2.784976037219166756e-03
-1.973596699587448313e+02 -2.974794246256351471e-03
-1.973196649581197732e+02 2.715019742026925087e-03
-1.972796599574946868e+02 -2.906458918005228043e-03
-1.972396549568696003e+02 2.648250432685017586e-03
-1.971996499562445422e+02 -2.841203939169645309e-03
-1.971596449556194557e+02 2.584459725767374039e-03
-1.971196399549943692e+02 -2.778829773887991905e-03
-1.970796349543692827e+02 2.523456234484910965e-03
-1.970396299537442246e+02 -2.719153184443712234e-03
-1.969996249531191381e+02 2.465064637362957001e-03
-1.969596199524940516e+02 -2.662006299942731857e-03
-1.969196149518689936e+02 2.409124048426747322e-03
-1.968796099512439071e+02 -2.607234520837664604e-03
-1.968396049506188206e+02 2.355485688894987106e-03
-1.967995999499937625e+02 -2.554695587605237961e-03
-1.967595949493686760e+02 2.304013352841138840e-03
-1.967195899487435895e+02 -2.504258416593074799e-03
-1.966795849481185030e+02 2.254580613225698471e-03
-1.966395799474934449e+02 -2.455801237374544144e-03
-1.965995749468683584e+02 2.207071054726839066e-03
-1.965595699462432719e+02 -2.409211825579404831e-03
-1.965195649456182139e+02 2.161376178264617920e-03
-1.964795599449931274e+02 -2.364386338740587234e-03
-1.964395549443680409e+02 2.117396099492907524e-03
-1.963995499437429544e+02 -2.321228384971618652e-03
-1.963595449431178963e+02 2.075037453323602676e-03
-1.963195399424928098e+02 -2.279647858813405037e-03
-1.962795349418677233e+02 2.034214092418551445e-03
-1.962395299412426652e+02 -2.239561406895518303e-03
-1.961995249406175787e+02 1.994845224544405937e-03
-1.961595199399924923e+02 -2.200891496613621712e-03
-1.961195149393674342e+02 1.956855878233909607e-03
-1.960795099387423477e+02 -2.163565251976251602e-03
-1.960395049381172612e+02 1.920176087878644466e-03
-1.959994999374921747e+02 -2.127515384927392006e-03
-1.959594949368671166e+02 1.884740311652421951e-03
-1.959194899362420301e+02 -2.092678332701325417e-03
-1.958794849356169436e+02 1.850487431511282921e-03
-1.958394799349918856e+02 -2.058995189145207405e-03
-1.957994749343667991e+02 1.817359938286244869e-03
-1.957594699337417126e+02 -2.026410074904561043e-03
-1.957194649331166261e+02 1.785304397344589233e-03
-1.956794599324915680e+02 -1.994871534407138824e-03
-1.956394549318664815e+02 1.754270400851964951e-03
-1.955994499312413950e+02 -1.964330207556486130e-03
-1.955594449306163369e+02 1.724210567772388458e-03
-1.955194399299912504e+02 -1.934740692377090454e-03
-1.954794349293661639e+02 1.695080427452921867e-03
-1.954394299287411059e+02 -1.906059565953910351e-03
-1.953994249281160194e+02 1.666838186793029308e-03
-1.953594199274909329e+02 -1.878246432170271873e-03
-1.953194149268658464e+02 1.639444613829255104e-03
-1.952794099262407883e+02 -1.851263106800615788e-03
-1.952394049256157018e+02 1.612862455658614635e-03
-1.951993999249906153e+02 -1.825073384679853916e-03
-1.951593949243655572e+02 1.587056787684559822e-03
-1.951193899237404707e+02 -1.799643388949334621e-03
-1.950793849231153843e+02 1.561994431540369987e-03
-1.950393799224902978e+02 -1.774940988980233669e-03
-1.949993749218652397e+02 1.537644420750439167e-03
-1.949593699212401532e+02 -1.750935916788876057e-03
-1.949193649206150667e+02 1.513977069407701492e-03
-1.948793599199900086e+02 -1.727599417790770531e-03
-1.948393549193649221e+02 1.490964554250240326e-03
-1.947993499187398356e+02 -1.704904367215931416e-03
-1.947593449181147776e+02 1.468580449000000954e-03
-1.947193399174896911e+02 -1.682824920862913132e-03
-1.946793349168646046e+02 1.446799724362790585e-03
-1.946393299162395181e+02 -1.661336864344775677e-03
-1.945993249156144600e+02 1.425598631612956524e-03
-1.945593199149893735e+02 -1.640417147427797318e-03
-1.945193149143642870e+02 1.404954586178064346e-03
-1.944793099137392289e+02 -1.620043534785509109e-03
-1.944393049131141424e+02 1.384846400469541550e-03
-1.943992999124890559e+02 -1.600195420905947685e-03
-1.943592949118639694e+02 1.365253468975424767e-03
-1.943192899112389114e+02 -1.580853015184402466e-03
-1.942792849106138249e+02 1.346156699582934380e-03
-1.942392799099887384e+02 -1.561997341923415661e-03
-1.941992749093636803e+02 1.327537698671221733e-03
-1.941592699087385938e+02 -1.543610589578747749e-03
-1.941192649081135073e+02 1.309379003942012787e-03
-1.940792599074884492e+02 -1.525675761513411999e-03
-1.940392549068633627e+02 1.291663851588964462e-03
-1.939992499062382763e+02 -1.508176443167030811e-03
-1.939592449056131898e+02 1.274376525543630123e-03
-1.939192399049881317e+02 -1.491097267717123032e-03
-1.938792349043630452e+02 1.257501891814172268e-03
-1.938392299037379587e+02 -1.474423450417816639e-03
-1.937992249031129006e+02 1.241025398485362530e-03
-1.937592199024878141e+02 -1.458140905015170574e-03
-1.937192149018627276e+02 1.224933424964547157e-03
-1.936792099012376411e+02 -1.442236243747174740e-03
-1.936392049006125831e+02 1.209212816320359707e-03
-1.935991998999874966e+02 -1.426696544513106346e-03
-1.935591948993624101e+02 1.193850883282721043e-03
-1.935191898987373520e+02 -1.411509467288851738e-03
-1.934791848981122655e+02 1.178835751488804817e-03
-1.934391798974871790e+02 -1.396663370542228222e-03
-1.933991748968621209e+02 1.164156012237071991e-03
-1.933591698962370344e+02 -1.382147078402340412e-03
-1.933191648956119479e+02 1.149800489656627178e-03
-1.932791598949868614e+02 -1.367949880659580231e-03
-1.932391548943618034e+02 1.135758822783827782e-03
-1.931991498937367169e+02 -1.354061299934983253e-03
-1.931591448931116304e+02 1.122020999900996685e-03
-1.931191398924865723e+02 -1.340471557341516018e-03
-1.930791348918614858e+02 1.108577125705778599e-03
-1.930391298912363993e+02 -1.327171339653432369e-03
-1.929991248906113128e+02 1.095418236218392849e-03
-1.929591198899862547e+02 -1.314151566475629807e-03
-1.929191148893611683e+02 1.082535251043736935e-03
-1.928791098887360818e+02 -1.301403390243649483e-03
-1.928391048881110237e+02 1.069919788278639317e-03
-1.927990998874859372e+02 -1.288918661884963512e-03
-1.927590948868608507e+02 1.057563815265893936e-03
-1.927190898862357926e+02 -1.276689232327044010e-03
-1.926790848856107061e+02 1.045459182932972908e-03
-1.926390798849856196e+02 -1.264707534573972225e-03
-1.925990748843605331e+02 1.033598557114601135e-03
-1.925590698837354751e+02 -1.252966234460473061e-03
-1.925190648831103886e+02 1.021974836476147175e-03
-1.924790598824853021e+02 -1.241458230651915073e-03
-1.924390548818602440e+02 1.010580803267657757e-03
-1.923990498812351575e+02 -1.230176538228988647e-03
-1.923590448806100710e+02 9.994099382311105728e-04
-1.923190398799849845e+02 -1.219114870764315128e-03
-1.922790348793599264e+02 9.884557221084833145e-04
-1.922390298787348399e+02 -1.208266708999872208e-03
-1.921990248781097534e+02 9.777121013030409813e-04
-1.921590198774846954e+02 -1.197626115754246712e-03
-1.921190148768596089e+02 9.671730222180485725e-04
-1.920790098762345224e+02 -1.187187153846025467e-03
-1.920390048756094643e+02 9.568327805027365685e-04
-1.919989998749843778e+02 -1.176944235339760780e-03
-1.919589948743592913e+02 9.466858464293181896e-04
-1.919189898737342048e+02 -1.166892005130648613e-03
-1.918789848731091467e+02 9.367269231006503105e-04
-1.918389798724840603e+02 -1.157025108113884926e-03
-1.917989748718589738e+02 9.269508882425725460e-04
-1.917589698712339157e+02 -1.147338538430631161e-03
-1.917189648706088292e+02 9.173527359962463379e-04
-1.916789598699837427e+02 -1.137827639468014240e-03
-1.916389548693586562e+02 9.079277515411376953e-04
-1.915989498687335981e+02 -1.128487521782517433e-03
-1.915589448681085116e+02 8.986712782643735409e-04
-1.915189398674834251e+02 -1.119313645176589489e-03
-1.914789348668583671e+02 8.895789505913853645e-04
-1.914389298662332806e+02 -1.110301702283322811e-03
-1.913989248656081941e+02 8.806464611552655697e-04
-1.913589198649831360e+02 -1.101447618566453457e-03
-1.913189148643580495e+02 8.718696190044283867e-04
-1.912789098637329630e+02 -1.092747086659073830e-03
-1.912389048631078765e+02 8.632445242255926132e-04
-1.911988998624828184e+02 -1.084196381270885468e-03
-1.911588948618577319e+02 8.547671604901552200e-04
-1.911188898612326454e+02 -1.075791544280946255e-03
-1.910788848606075874e+02 8.464339189231395721e-04
-1.910388798599825009e+02 -1.067528966814279556e-03
-1.909988748593574144e+02 8.382411324419081211e-04
-1.909588698587323279e+02 -1.059405039995908737e-03
-1.909188648581072698e+02 8.301853085868060589e-04
-1.908788598574821833e+02 -1.051416387781500816e-03
-1.908388548568570968e+02 8.222630713135004044e-04
-1.907988498562320387e+02 -1.043559750542044640e-03
-1.907588448556069523e+02 8.144711609929800034e-04
-1.907188398549818658e+02 -1.035831868648529053e-03
-1.906788348543568077e+02 8.068064344115555286e-04
-1.906388298537317212e+02 -1.028229482471942902e-03
-1.905988248531066347e+02 7.992658065631985664e-04
-1.905588198524815482e+02 -1.020749798044562340e-03
-1.905188148518564901e+02 7.918462506495416164e-04
-1.904788098512314036e+02 -1.013389788568019867e-03
-1.904388048506063171e+02 7.845450309105217457e-04
-1.903987998499812591e+02 -1.006146543659269810e-03
-1.903587948493561726e+02 7.773592369630932808e-04
-1.903187898487310861e+02 -9.990175021812319756e-04
-1.902787848481059996e+02 7.702862494625151157e-04
-1.902387798474809415e+02 -9.919998701661825180e-04
-1.901987748468558550e+02 7.633233908563852310e-04
-1.901587698462307685e+02 -9.850912028923630714e-04
-1.901187648456057104e+02 7.564681582152843475e-04
-1.900787598449806239e+02 -9.782888228073716164e-04
-1.900387548443555374e+02 7.497181068174540997e-04
-1.899987498437304794e+02 -9.715904598124325275e-04
-1.899587448431053929e+02 7.430707919411361217e-04
-1.899187398424803064e+02 -9.649937273934483528e-04
-1.898787348418552199e+02 7.365240016952157021e-04
-1.898387298412301618e+02 -9.584962972439825535e-04
-1.897987248406050753e+02 7.300754077732563019e-04
-1.897587198399799888e+02 -9.520960156805813313e-04
-1.897187148393549307e+02 7.237228564918041229e-04
-1.896787098387298443e+02 -9.457907290197908878e-04
-1.896387048381047578e+02 7.174642523750662804e-04
-1.895986998374796713e+02 -9.395782835781574249e-04
-1.895586948368546132e+02 7.112975581549108028e-04
-1.895186898362295267e+02 -9.334567002952098846e-04
-1.894786848356044402e+02 7.052206783555448055e-04
-1.894386798349793821e+02 -9.274240583181381226e-04
-1.893986748343542956e+02 6.992317503318190575e-04
-1.893586698337292091e+02 -9.214784367941319942e-04
-1.893186648331041511e+02 6.933289114385843277e-04
-1.892786598324790646e+02 -9.156179148703813553e-04
-1.892386548318539781e+02 6.875102990306913853e-04
-1.891986498312288916e+02 -9.098407463170588017e-04
-1.891586448306038335e+02 6.817741086706519127e-04
-1.891186398299787470e+02 -9.041451266966760159e-04
-1.890786348293536605e+02 6.761186523362994194e-04
-1.890386298287286024e+02 -8.985293679870665073e-04
-1.889986248281035159e+02 6.705422420054674149e-04
-1.889586198274784294e+02 -8.929918985813856125e-04
-1.889186148268533429e+02 6.650431896559894085e-04
-1.888786098262282849e+02 -8.875309722498059273e-04
-1.888386048256031984e+02 6.596199818886816502e-04
-1.887985998249781119e+02 -8.821450755931437016e-04
-1.887585948243530538e+02 6.542710470966994762e-04
-1.887185898237279673e+02 -8.768326952122151852e-04
-1.886785848231028808e+02 6.489948718808591366e-04
-1.886385798224778227e+02 -8.715923759154975414e-04
-1.885985748218527362e+02 6.437900010496377945e-04
-1.885585698212276498e+02 -8.664226043038070202e-04
-1.885185648206025633e+02 6.386549794115126133e-04
-1.884785598199775052e+02 -8.613219833932816982e-04
-1.884385548193524187e+02 6.335884681902825832e-04
-1.883985498187273322e+02 -8.562891744077205658e-04
-1.883585448181022741e+02 6.285890121944248676e-04
-1.883185398174771876e+02 -8.513227803632616997e-04
-1.882785348168521011e+02 6.236553890630602837e-04
-1.882385298162270146e+02 -8.464216371066868305e-04
-1.881985248156019566e+02 6.187863182276487350e-04
-1.881585198149768701e+02 -8.415842894464731216e-04
-1.881185148143517836e+02 6.139804609119892120e-04
-1.880785098137267255e+02 -8.368096314370632172e-04
-1.880385048131016390e+02 6.092367111705243587e-04
-1.879984998124765525e+02 -8.320964407175779343e-04
-1.879584948118514944e+02 6.045537884347140789e-04
-1.879184898112264079e+02 -8.274435531347990036e-04
-1.878784848106013214e+02 5.999305867590010166e-04
-1.878384798099762349e+02 -8.228498045355081558e-04
-1.877984748093511769e+02 5.953660001978278160e-04
-1.877584698087260904e+02 -8.183140307664871216e-04
-1.877184648081010039e+02 5.908588063903152943e-04
-1.876784598074759458e+02 -8.138351840898394585e-04
-1.876384548068508593e+02 5.864080740138888359e-04
-1.875984498062257728e+02 -8.094122749753296375e-04
-1.875584448056006863e+02 5.820126971229910851e-04
-1.875184398049756282e+02 -8.050441974774003029e-04
-1.874784348043505418e+02 5.776716279797255993e-04
-1.874384298037254553e+02 -8.007299038581550121e-04
-1.873984248031003972e+02 5.733839352615177631e-04
-1.873584198024753107e+02 -7.964685210026800632e-04
-1.873184148018502242e+02 5.691485712304711342e-04
-1.872784098012251661e+02 -7.922589429654181004e-04
-1.872384048006000796e+02 5.649646627716720104e-04
-1.871983997999749931e+02 -7.881004130467772484e-04
-1.871583947993499066e+02 5.608312203548848629e-04
-1.871183897987248486e+02 -7.839918835088610649e-04
-1.870783847980997621e+02 5.567473126575350761e-04
-1.870383797974746756e+02 -7.799324812367558479e-04
-1.869983747968496175e+02 5.527121829800307751e-04
-1.869583697962245310e+02 -7.759213331155478954e-04
-1.869183647955994445e+02 5.487248417921364307e-04
-1.868783597949743580e+02 -7.719576242379844189e-04
-1.868383547943492999e+02 5.447845323942601681e-04
-1.867983497937242134e+02 -7.680404814891517162e-04
-1.867583447930991269e+02 5.408903816714882851e-04
-1.867183397924740689e+02 -7.641691481694579124e-04
-1.866783347918489824e+02 5.370416329242289066e-04
-1.866383297912238959e+02 -7.603427511639893055e-04
-1.865983247905988378e+02 5.332374712452292442e-04
-1.865583197899737513e+02 -7.565605919808149338e-04
-1.865183147893486648e+02 5.294770817272365093e-04
-1.864783097887235783e+02 -7.528218557126820087e-04
-1.864383047880985202e+02 5.257598240859806538e-04
-1.863982997874734338e+02 -7.491257856599986553e-04
-1.863582947868483473e+02 5.220848252065479755e-04
-1.863182897862232892e+02 -7.454717415384948254e-04
-1.862782847855982027e+02 5.184515030123293400e-04
-1.862382797849731162e+02 -7.418589666485786438e-04
-1.861982747843480297e+02 5.148591008037328720e-04
-1.861582697837229716e+02 -7.382867624983191490e-04
-1.861182647830978851e+02 5.113069200888276100e-04
-1.860782597824727986e+02 -7.347544305957853794e-04
-1.860382547818477406e+02 5.077943205833435059e-04
-1.859982497812226541e+02 -7.312613888643682003e-04
-1.859582447805975676e+02 5.043206037953495979e-04
-1.859182397799725095e+02 -7.278068806044757366e-04
-1.858782347793474230e+02 5.008851876482367516e-04
-1.858382297787223365e+02 -7.243903819471597672e-04
-1.857982247780972500e+02 4.974873736500740051e-04
-1.857582197774721919e+02 -7.210111361928284168e-04
-1.857182147768471054e+02 4.941266379319131374e-04
-1.856782097762220189e+02 -7.176686776801943779e-04
-1.856382047755969609e+02 4.908023402094841003e-04
-1.855981997749718744e+02 -7.143623661249876022e-04
-1.855581947743467879e+02 4.875138401985168457e-04
-1.855181897737217014e+02 -7.110915612429380417e-04
-1.854781847730966433e+02 4.842606140300631523e-04
-1.854381797724715568e+02 -7.078557973727583885e-04
-1.853981747718464703e+02 4.810421087313443422e-04
-1.853581697712214122e+02 -7.046544342301785946e-04
-1.853181647705963258e+02 4.778577713295817375e-04
-1.852781597699712393e+02 -7.014869479462504387e-04
-1.852381547693461812e+02 4.747070197481662035e-04
-1.851981497687210947e+02 -6.983528146520256996e-04
-1.851581447680960082e+02 4.715893883258104324e-04
-1.851181397674709217e+02 -6.952515104785561562e-04
-1.850781347668458636e+02 4.685042949859052896e-04
-1.850381297662207771e+02 -6.921825697645545006e-04
-1.849981247655956906e+02 4.654513031709939241e-04
-1.849581197649706326e+02 -6.891454104334115982e-04
-1.849181147643455461e+02 4.624298599082976580e-04
-1.848781097637204596e+02 -6.861395668238401413e-04
-1.848381047630953731e+02 4.594394995365291834e-04
-1.847980997624703150e+02 -6.831645732745528221e-04
-1.847580947618452285e+02 4.564797563944011927e-04
-1.847180897612201420e+02 -6.802199641242623329e-04
-1.846780847605950839e+02 4.535501357167959213e-04
-1.846380797599699974e+02 -6.773052155040204525e-04
-1.845980747593449109e+02 4.506502300500869751e-04
-1.845580697587198529e+02 -6.744199781678617001e-04
-1.845180647580947664e+02 4.477795446291565895e-04
-1.844780597574696799e+02 -6.715637282468378544e-04
-1.844380547568445934e+02 4.449376428965479136e-04
-1.843980497562195353e+02 -6.687361164949834347e-04
-1.843580447555944488e+02 4.421241173986345530e-04
-1.843180397549693623e+02 -6.659366190433502197e-04
-1.842780347543443042e+02 4.393385606817901134e-04
-1.842380297537192178e+02 -6.631648866459727287e-04
-1.841980247530941313e+02 4.365805361885577440e-04
-1.841580197524690448e+02 -6.604204536415636539e-04
-1.841180147518439867e+02 4.338496073614805937e-04
-1.840780097512189002e+02 -6.577029707841575146e-04
-1.840380047505938137e+02 4.311454249545931816e-04
-1.839979997499687556e+02 -6.550119724124670029e-04
-1.839579947493436691e+02 4.284676106180995703e-04
-1.839179897487185826e+02 -6.523471674881875515e-04
-1.838779847480935246e+02 4.258157277945429087e-04
-1.838379797474684381e+02 -6.497081485576927662e-04
-1.837979747468433516e+02 4.231894272379577160e-04
-1.837579697462182935e+02 -6.470945081673562527e-04
-1.837179647455932070e+02 4.205883597023785114e-04
-1.836779597449681205e+02 -6.445058970712125301e-04
-1.836379547443430340e+02 4.180121177341789007e-04
-1.835979497437179759e+02 -6.419419660232961178e-04
-1.835579447430928894e+02 4.154604102950543165e-04
-1.835179397424678029e+02 -6.394023657776415348e-04
-1.834779347418427164e+02 4.129328299313783646e-04
-1.834379297412176584e+02 -6.368867470882833004e-04
-1.833979247405925719e+02 4.104290856048464775e-04
-1.833579197399674854e+02 -6.343947607092559338e-04
-1.833179147393424273e+02 4.079488280694931746e-04
-1.832779097387173408e+02 -6.319261156022548676e-04
-1.832379047380922543e+02 4.054917080793529749e-04
-1.831978997374671962e+02 -6.294804625213146210e-04
-1.831578947368421098e+02 4.030574054922908545e-04
-1.831178897362170233e+02 -6.270574522204697132e-04
-1.830778847355919652e+02 4.006456292700022459e-04
-1.830378797349668787e+02 -6.246568518690764904e-04
-1.829978747343417922e+02 3.982560592703521252e-04
-1.829578697337167057e+02 -6.222782540135085583e-04
-1.829178647330916476e+02 3.958884044550359249e-04
-1.828778597324665611e+02 -6.199214258231222630e-04
-1.828378547318414746e+02 3.935423155780881643e-04
-1.827978497312163881e+02 -6.175860180519521236e-04
-1.827578447305913301e+02 3.912175598088651896e-04
-1.827178397299662436e+02 -6.152717978693544865e-04
-1.826778347293411571e+02 3.889138170052319765e-04
-1.826378297287160990e+02 -6.129784742370247841e-04
-1.825978247280910125e+02 3.866307961288839579e-04
-1.825578197274659260e+02 -6.107056979089975357e-04
-1.825178147268408679e+02 3.843682352453470230e-04
-1.824778097262157814e+02 -6.084532942622900009e-04
-1.824378047255906949e+02 3.821258433163166046e-04
-1.823977997249656369e+02 -6.062209140509366989e-04
-1.823577947243405504e+02 3.799033875111490488e-04
-1.823177897237154639e+02 -6.040082662366330624e-04
-1.822777847230903774e+02 3.777005767915397882e-04
-1.822377797224653193e+02 -6.018151761963963509e-04
-1.821977747218402328e+02 3.755171492230147123e-04
-1.821577697212151463e+02 -5.996413528919219971e-04
-1.821177647205900598e+02 3.733528719749301672e-04
-1.820777597199650018e+02 -5.974865634925663471e-04
-1.820377547193399153e+02 3.712074540089815855e-04
-1.819977497187148288e+02 -5.953505169600248337e-04
-1.819577447180897707e+02 3.690807207021862268e-04
-1.819177397174646842e+02 -5.932329804636538029e-04
-1.818777347168395977e+02 3.669723519124090672e-04
-1.818377297162145396e+02 -5.911337211728096008e-04
-1.817977247155894531e+02 3.648821439128369093e-04
-1.817577197149643666e+02 -5.890525062568485737e-04
-1.817177147143393086e+02 3.628098638728260994e-04
-1.816777097137142221e+02 -5.869891028851270676e-04
-1.816377047130891356e+02 3.607553080655634403e-04
-1.815976997124640491e+02 -5.849433364346623421e-04
-1.815576947118389910e+02 3.587182145565748215e-04
-1.815176897112139045e+02 -5.829148576594889164e-04
-1.814776847105888180e+02 3.566983505152165890e-04
-1.814376797099637315e+02 -5.809035501442849636e-04
-1.813976747093386734e+02 3.546955413185060024e-04
-1.813576697087135869e+02 -5.789091810584068298e-04
-1.813176647080885004e+02 3.527095541357994080e-04
-1.812776597074634424e+02 -5.769315175712108612e-04
-1.812376547068383559e+02 3.507401561364531517e-04
-1.811976497062132694e+02 -5.749703850597143173e-04
-1.811576447055882113e+02 3.487871726974844933e-04
-1.811176397049631248e+02 -5.730254924856126308e-04
-1.810776347043380383e+02 3.468503709882497787e-04
-1.810376297037129802e+02 -5.710967234335839748e-04
-1.809976247030878937e+02 3.449295763857662678e-04
-1.809576197024628073e+02 -5.691838450729846954e-04
-1.809176147018377208e+02 3.430245851632207632e-04
-1.808776097012126627e+02 -5.672866827808320522e-04
-1.808376047005875762e+02 3.411351935938000679e-04
-1.807975996999624897e+02 -5.654050037264823914e-04
-1.807575946993374032e+02 3.392612270545214415e-04
-1.807175896987123451e+02 -5.635386914946138859e-04
-1.806775846980872586e+02 3.374024527147412300e-04
-1.806375796974621721e+02 -5.616874550469219685e-04
-1.805975746968371141e+02 3.355587541591376066e-04
-1.805575696962120276e+02 -5.598512361757457256e-04
-1.805175646955869411e+02 3.337298985570669174e-04
-1.804775596949618830e+02 -5.580297438427805901e-04
-1.804375546943367965e+02 3.319157403893768787e-04
-1.803975496937117100e+02 -5.562228616327047348e-04
-1.803575446930866519e+02 3.301160759292542934e-04
-1.803175396924615654e+02 -5.544303567148745060e-04
-1.802775346918364789e+02 3.283307305537164211e-04
-1.802375296912113924e+02 -5.526521126739680767e-04
-1.801975246905863344e+02 3.265595587436109781e-04
-1.801575196899612479e+02 -5.508879548870027065e-04
-1.801175146893361614e+02 3.248023858759552240e-04
-1.800775096887110749e+02 -5.491377087309956551e-04
-1.800375046880860168e+02 3.230590373277664185e-04
-1.799974996874609303e+02 -5.474012577906250954e-04
-1.799574946868358438e+02 3.213293675798922777e-04
-1.799174896862107857e+02 -5.456783110275864601e-04
-1.798774846855856993e+02 3.196131729055196047e-04
-1.798374796849606128e+02 -5.439688684418797493e-04
-1.797974746843355547e+02 3.179103659931570292e-04
-1.797574696837104682e+02 -5.422726389952003956e-04
-1.797174646830853817e+02 3.162207140121608973e-04
-1.796774596824603236e+02 -5.405895062722265720e-04
-1.796374546818352371e+02 3.145441296510398388e-04
-1.795974496812101506e+02 -5.389194120652973652e-04
-1.795574446805850641e+02 3.128804091829806566e-04
-1.795174396799600061e+02 -5.372620653361082077e-04
-1.794774346793349196e+02 3.112294361926615238e-04
-1.794374296787098331e+02 -5.356174078769981861e-04
-1.793974246780847466e+02 3.095910651609301567e-04
-1.793574196774596885e+02 -5.339853232726454735e-04
-1.793174146768346020e+02 3.079651505686342716e-04
-1.792774096762095155e+02 -5.323655786924064159e-04
-1.792374046755844574e+02 3.063515468966215849e-04
-1.791973996749593709e+02 -5.307580577209591866e-04
-1.791573946743342844e+02 3.047501086257398129e-04
-1.791173896737092264e+02 -5.291626439429819584e-04
-1.790773846730841399e+02 3.031607193406671286e-04
-1.790373796724590534e+02 -5.275792209431529045e-04
-1.789973746718339953e+02 3.015832044184207916e-04
-1.789573696712089088e+02 -5.260076140984892845e-04
-1.789173646705838223e+02 3.000174765475094318e-04
-1.788773596699587358e+02 -5.244477069936692715e-04
-1.788373546693336777e+02 2.984633611049503088e-04
-1.787973496687085913e+02 -5.228993832133710384e-04
-1.787573446680835048e+02 2.969207707792520523e-04
-1.787173396674584183e+02 -5.213624681346118450e-04
-1.786773346668333602e+02 2.953895600512623787e-04
-1.786373296662082737e+02 -5.198369035497307777e-04
-1.785973246655831872e+02 2.938695834018290043e-04
-1.785573196649581291e+02 -5.183225148357450962e-04
-1.785173146643330426e+02 2.923607535194605589e-04
-1.784773096637079561e+02 -5.168191855773329735e-04
-1.784373046630828981e+02 2.908629248850047588e-04
-1.783972996624578116e+02 -5.153268575668334961e-04
-1.783572946618327251e+02 2.893759810831397772e-04
-1.783172896612076670e+02 -5.138452979736030102e-04
-1.782772846605825805e+02 2.878998056985437870e-04
-1.782372796599574940e+02 -5.123744485899806023e-04
-1.781972746593324075e+02 2.864342823158949614e-04
-1.781572696587073494e+02 -5.109141930006444454e-04
-1.781172646580822629e+02 2.849792945198714733e-04
-1.780772596574571764e+02 -5.094644147902727127e-04
-1.780372546568320899e+02 2.835347258951514959e-04
-1.779972496562070319e+02 -5.080250557512044907e-04
-1.779572446555819454e+02 2.821004600264132023e-04
-1.779172396549568589e+02 -5.065958830527961254e-04
-1.778772346543318008e+02 2.806764096021652222e-04
-1.778372296537067143e+02 -5.051768966950476170e-04
-1.777972246530816278e+02 2.792624582070857286e-04
-1.777572196524565697e+02 -5.037679802626371384e-04
-1.777172146518314833e+02 2.778584894258528948e-04
-1.776772096512063968e+02 -5.023689591325819492e-04
-1.776372046505813387e+02 2.764643868431448936e-04
-1.775971996499562522e+02 -5.009797750972211361e-04
-1.775571946493311657e+02 2.750800631474703550e-04
-1.775171896487060792e+02 -4.996002535335719585e-04
-1.774771846480810211e+02 2.737054310273379087e-04
-1.774371796474559346e+02 -4.982304526492953300e-04
-1.773971746468308481e+02 2.723403449635952711e-04
-1.773571696462057616e+02 -4.968701396137475967e-04
-1.773171646455807036e+02 2.709847467485815287e-04
-1.772771596449556171e+02 -4.955191980116069317e-04
-1.772371546443305306e+02 2.696385490708053112e-04
-1.771971496437054725e+02 -4.941776278428733349e-04
-1.771571446430803860e+02 2.683015773072838783e-04
-1.771171396424552995e+02 -4.928453126922249794e-04
-1.770771346418302414e+02 2.669738314580172300e-04
-1.770371296412051549e+02 -4.915220779366791248e-04
-1.769971246405800684e+02 2.656551369000226259e-04
-1.769571196399550104e+02 -4.902079235762357712e-04
-1.769171146393299239e+02 2.643454645294696093e-04
-1.768771096387048374e+02 -4.889026749879121780e-04
-1.768371046380797509e+02 2.630446688272058964e-04
-1.767970996374546928e+02 -4.876063321717083454e-04
-1.767570946368296063e+02 2.617527206894010305e-04