-2.000000000000000000e+02 -4.624453838914632797e-03
-1.999599949993749135e+02 4.338238853961229324e-03
-1.999199899987498554e+02 -4.264330025762319565e-03
-1.998799849981247689e+02 4.006348084658384323e-03
-1.998399799974996824e+02 -3.957504406571388245e-03
-1.997999749968745959e+02 3.721873974427580833e-03
-1.997599699962495379e+02 -3.693042555823922157e-03
-1.997199649956244514e+02 3.475397825241088867e-03
-1.996799599949993649e+02 -3.462788648903369904e-03
-1.996399549943743068e+02 3.259824588894844055e-03
-1.995999499937492203e+02 -3.260541940107941628e-03
-1.995599449931241338e+02 3.069711150601506233e-03
-1.995199399924990757e+02 -3.081505419686436653e-03
-1.994799349918739892e+02 2.900813706219196320e-03
-1.994399299912489028e+02 -2.921911654993891716e-03
-1.993999249906238163e+02 2.749776467680931091e-03
-1.993599199899987582e+02 -2.778761554509401321e-03
-1.993199149893736717e+02 2.613911638036370277e-03
-1.992799099887485852e+02 -2.649639733135700226e-03
-1.992399049881235271e+02 2.491042483597993851e-03
-1.991998999874984406e+02 -2.532579004764556885e-03
-1.991598949868733541e+02 2.379387151449918747e-03
-1.991198899862482676e+02 -2.425961894914507866e-03
-1.990798849856232096e+02 2.277473686262965202e-03
-1.990398799849981231e+02 -2.328446600586175919e-03
-1.989998749843730366e+02 2.184076234698295593e-03
-1.989598699837479785e+02 -2.238910412415862083e-03
-1.989198649831228920e+02 2.098165452480316162e-03
-1.988798599824978055e+02 -2.156407572329044342e-03
-1.988398549818727474e+02 2.018870553001761436e-03
-1.987998499812476609e+02 -2.080135745927691460e-03
-1.987598449806225744e+02 1.945450669154524803e-03
-1.987198399799974879e+02 -2.009409479796886444e-03
-1.986798349793724299e+02 1.877271221019327641e-03
-1.986398299787473434e+02 -1.943640527315437794e-03
-1.985998249781222569e+02 1.813785871490836143e-03
-1.985598199774971988e+02 -1.882320502772927284e-03
-1.985198149768721123e+02 1.754521159455180168e-03
-1.984798099762470258e+02 -1.825008424930274487e-03
-1.984398049756219393e+02 1.699065673165023327e-03
-1.983997999749968812e+02 -1.771319541148841381e-03
-1.983597949743717948e+02 1.647059340029954910e-03
-1.983197899737467083e+02 -1.720916945487260818e-03
-1.982797849731216502e+02 1.598186325281858444e-03
-1.982397799724965637e+02 -1.673504011705517769e-03
-1.981997749718714772e+02 1.552168163470923901e-03
-1.981597699712464191e+02 -1.628819038160145283e-03
-1.981197649706213326e+02 1.508758519776165485e-03
-1.980797599699962461e+02 -1.586630009114742279e-03
-1.980397549693711596e+02 1.467738533392548561e-03
-1.979997499687461016e+02 -1.546730520203709602e-03
-1.979597449681210151e+02 1.428913441486656666e-03
-1.979197399674959286e+02 -1.508936402387917042e-03
-1.978797349668708705e+02 1.392108970321714878e-03
-1.978397299662457840e+02 -1.473082578741014004e-03
-1.977997249656206975e+02 1.357169006951153278e-03
-1.977597199649956110e+02 -1.439021201804280281e-03
-1.977197149643705529e+02 1.323952921666204929e-03
-1.976797099637454664e+02 -1.406618859618902206e-03
-1.976397049631203799e+02 1.292334171012043953e-03
-1.975996999624953219e+02 -1.375755178742110729e-03
-1.975596949618702354e+02 1.262198318727314472e-03
-1.975196899612451489e+02 -1.346321194432675838e-03
-1.974796849606200908e+02 1.233441522344946861e-03
-1.974396799599950043e+02 -1.318218186497688293e-03
-1.973996749593699178e+02 1.205969718284904957e-03
-1.973596699587448313e+02 -1.291356165893375874e-03
-1.973196649581197732e+02 1.179697108455002308e-03
-1.972796599574946868e+02 -1.265653292648494244e-03
-1.972396549568696003e+02 1.154545345343649387e-03
-1.971996499562445422e+02 -1.241034711711108685e-03
-1.971596449556194557e+02 1.130442833527922630e-03
-1.971196399549943692e+02 -1.217431854456663132e-03
-1.970796349543692827e+02 1.107324031181633472e-03
-1.970396299537442246e+02 -1.194782089442014694e-03
-1.969996249531191381e+02 1.085128867998719215e-03
-1.969596199524940516e+02 -1.173027674667537212e-03
-1.969196149518689936e+02 1.063801930285990238e-03
-1.968796099512439071e+02 -1.152115524746477604e-03
-1.968396049506188206e+02 1.043292344547808170e-03
-1.967995999499937625e+02 -1.131996745243668556e-03
-1.967595949493686760e+02 1.023552962578833103e-03
-1.967195899487435895e+02 -1.112626050598919392e-03
-1.966795849481185030e+02 1.004540477879345417e-03
-1.966395799474934449e+02 -1.093961647711694241e-03
-1.965995749468683584e+02 9.862146107479929924e-04
-1.965595699462432719e+02 -1.075965003110468388e-03
-1.965195649456182139e+02 9.685380500741302967e-04
-1.964795599449931274e+02 -1.058600028045475483e-03
-1.964395549443680409e+02 9.514762787148356438e-04
-1.963995499437429544e+02 -1.041833427734673023e-03
-1.963595449431178963e+02 9.349971078336238861e-04
-1.963195399424928098e+02 -1.025634119287133217e-03
-1.962795349418677233e+02 9.190706186927855015e-04
-1.962395299412426652e+02 -1.009973348118364811e-03
-1.961995249406175787e+02 9.036688716150820255e-04
-1.961595199399924923e+02 -9.948241058737039566e-04
-1.961195149393674342e+02 8.887658477760851383e-04
-1.960795099387423477e+02 -9.801612468436360359e-04
-1.960395049381172612e+02 8.743372163735330105e-04
-1.959994999374921747e+02 -9.659611969254910946e-04
-1.959594949368671166e+02 8.603602182120084763e-04
-1.959194899362420301e+02 -9.522019536234438419e-04
-1.958794849356169436e+02 8.468135492876172066e-04
-1.958394799349918856e+02 -9.388629114255309105e-04
-1.957994749343667991e+02 8.336773025803267956e-04
-1.957594699337417126e+02 -9.259246871806681156e-04
-1.957194649331166261e+02 8.209326188080012798e-04
-1.956794599324915680e+02 -9.133692365139722824e-04
-1.956394549318664815e+02 8.085620356723666191e-04
-1.955994499312413950e+02 -9.011793299578130245e-04
-1.955594449306163369e+02 7.965489057824015617e-04
-1.955194399299912504e+02 -8.893390186131000519e-04
-1.954794349293661639e+02 7.848776294849812984e-04
-1.954394299287411059e+02 -8.778331684879958630e-04
-1.953994249281160194e+02 7.735335966572165489e-04
-1.953594199274909329e+02 -8.666475187055766582e-04
-1.953194149268658464e+02 7.625029538758099079e-04
-1.952794099262407883e+02 -8.557685650885105133e-04
-1.952394049256157018e+02 7.517726044170558453e-04
-1.951993999249906153e+02 -8.451836765743792057e-04
-1.951593949243655572e+02 7.413302082568407059e-04
-1.951193899237404707e+02 -8.348808623850345612e-04
-1.950793849231153843e+02 7.311641238629817963e-04
-1.950393799224902978e+02 -8.248487720265984535e-04
-1.949993749218652397e+02 7.212632917799055576e-04
-1.949593699212401532e+02 -8.150766952894628048e-04
-1.949193649206150667e+02 7.116173510439693928e-04
-1.948793599199900086e+02 -8.055543876253068447e-04
-1.948393549193649221e+02 7.022162899374961853e-04
-1.947993499187398356e+02 -7.962721865624189377e-04
-1.947593449181147776e+02 6.930507370270788670e-04
-1.947193399174896911e+02 -7.872210699133574963e-04
-1.946793349168646046e+02 6.841118447482585907e-04
-1.946393299162395181e+02 -7.783923065289855003e-04
-1.945993249156144600e+02 6.753911147825419903e-04
-1.945593199149893735e+02 -7.697776309214532375e-04
-1.945193149143642870e+02 6.668805144727230072e-04
-1.944793099137392289e+02 -7.613691850565373898e-04
-1.944393049131141424e+02 6.585724186152219772e-04
-1.943992999124890559e+02 -7.531595765613019466e-04
-1.943592949118639694e+02 6.504594930447638035e-04
-1.943192899112389114e+02 -7.451416458934545517e-04
-1.942792849106138249e+02 6.425348692573606968e-04
-1.942392799099887384e+02 -7.373086409643292427e-04
-1.941992749093636803e+02 6.347919115796685219e-04
-1.941592699087385938e+02 -7.296541589312255383e-04
-1.941192649081135073e+02 6.272243335843086243e-04
-1.940792599074884492e+02 -7.221720297820866108e-04
-1.940392549068633627e+02 6.198261980898678303e-04
-1.939992499062382763e+02 -7.148563745431602001e-04
-1.939592449056131898e+02 6.125916843302547932e-04
-1.939192399049881317e+02 -7.077016634866595268e-04
-1.938792349043630452e+02 6.055153789930045605e-04
-1.938392299037379587e+02 -7.007024833001196384e-04
-1.937992249031129006e+02 5.985921015962958336e-04
-1.937592199024878141e+02 -6.938537699170410633e-04
-1.937192149018627276e+02 5.918167298659682274e-04
-1.936792099012376411e+02 -6.871506338939070702e-04
-1.936392049006125831e+02 5.851846071891486645e-04
-1.935991998999874966e+02 -6.805883604101836681e-04
-1.935591948993624101e+02 5.786911351606249809e-04
-1.935191898987373520e+02 -6.741625838913023472e-04
-1.934791848981122655e+02 5.723318899981677532e-04
-1.934391798974871790e+02 -6.678688805550336838e-04
-1.933991748968621209e+02 5.661027389578521252e-04
-1.933591698962370344e+02 -6.617032340727746487e-04
-1.933191648956119479e+02 5.599996075034141541e-04
-1.932791598949868614e+02 -6.556616863235831261e-04
-1.932391548943618034e+02 5.540187121368944645e-04
-1.931991498937367169e+02 -6.497405120171606541e-04
-1.931591448931116304e+02 5.481563275679945946e-04
-1.931191398924865723e+02 -6.439359858632087708e-04
-1.930791348918614858e+02 5.424088449217379093e-04
-1.930391298912363993e+02 -6.382447318173944950e-04
-1.929991248906113128e+02 5.367730045691132545e-04
-1.929591198899862547e+02 -6.326634320430457592e-04
-1.929191148893611683e+02 5.312453722581267357e-04
-1.928791098887360818e+02 -6.271887687034904957e-04
-1.928391048881110237e+02 5.258229793980717659e-04
-1.927990998874859372e+02 -6.218177732080221176e-04
-1.927590948868608507e+02 5.205026245675981045e-04
-1.927190898862357926e+02 -6.165474187582731247e-04
-1.926790848856107061e+02 5.152815720066428185e-04
-1.926390798849856196e+02 -6.113749113865196705e-04
-1.925990748843605331e+02 5.101569113321602345e-04
-1.925590698837354751e+02 -6.062974571250379086e-04
-1.925190648831103886e+02 5.051259649917483330e-04
-1.924790598824853021e+02 -6.013124366290867329e-04
-1.924390548818602440e+02 5.001862300559878349e-04
-1.923990498812351575e+02 -5.964172887615859509e-04
-1.923590448806100710e+02 4.953350871801376343e-04
-1.923190398799849845e+02 -5.916096270084381104e-04
-1.922790348793599264e+02 4.905702662654221058e-04
-1.922390298787348399e+02 -5.868870648555457592e-04
-1.921990248781097534e+02 4.858893807977437973e-04
-1.921590198774846954e+02 -5.822472739964723587e-04
-1.921190148768596089e+02 4.812902188859879971e-04
-1.920790098762345224e+02 -5.776881589554250240e-04
-1.920390048756094643e+02 4.767705977428704500e-04
-1.919989998749843778e+02 -5.732075660489499569e-04
-1.919589948743592913e+02 4.723284801002591848e-04
-1.919189898737342048e+02 -5.688033998012542725e-04
-1.918789848731091467e+02 4.679618286900222301e-04
-1.918389798724840603e+02 -5.644737393595278263e-04
-1.917989748718589738e+02 4.636687226593494415e-04
-1.917589698712339157e+02 -5.602167220786213875e-04
-1.917189648706088292e+02 4.594472993630915880e-04
-1.916789598699837427e+02 -5.560304271057248116e-04
-1.916389548693586562e+02 4.552957252599298954e-04
-1.915989498687335981e+02 -5.519131664186716080e-04
-1.915589448681085116e+02 4.512123123276978731e-04
-1.915189398674834251e+02 -5.478631937876343727e-04
-1.914789348668583671e+02 4.471953143365681171e-04
-1.914389298662332806e+02 -5.438787629827857018e-04
-1.913989248656081941e+02 4.432431305758655071e-04
-1.913589198649831360e+02 -5.399584188126027584e-04
-1.913189148643580495e+02 4.393541894387453794e-04
-1.912789098637329630e+02 -5.361005314625799656e-04
-1.912389048631078765e+02 4.355269484221935272e-04
-1.911988998624828184e+02 -5.323035875335335732e-04
-1.911588948618577319e+02 4.317599232308566570e-04
-1.911188898612326454e+02 -5.285661318339407444e-04
-1.910788848606075874e+02 4.280517168808728456e-04
-1.910388798599825009e+02 -5.248867673799395561e-04
-1.909988748593574144e+02 4.244009032845497131e-04
-1.909588698587323279e+02 -5.212642136029899120e-04
-1.909188648581072698e+02 4.208062018733471632e-04
-1.908788598574821833e+02 -5.176970153115689754e-04
-1.908388548568570968e+02 4.172662447672337294e-04
-1.907988498562320387e+02 -5.141839501447975636e-04
-1.907588448556069523e+02 4.137798096053302288e-04
-1.907188398549818658e+02 -5.107238539494574070e-04
-1.906788348543568077e+02 4.103456740267574787e-04
-1.906388298537317212e+02 -5.073153879493474960e-04
-1.905988248531066347e+02 4.069626447744667530e-04
-1.905588198524815482e+02 -5.039575044065713882e-04
-1.905188148518564901e+02 4.036296159029006958e-04
-1.904788098512314036e+02 -5.006490391679108143e-04
-1.904388048506063171e+02 4.003454232588410378e-04
-1.903987998499812591e+02 -4.973888862878084183e-04
-1.903587948493561726e+02 3.971089900005608797e-04
-1.903187898487310861e+02 -4.941759398207068443e-04
-1.902787848481059996e+02 3.939192974939942360e-04
-1.902387798474809415e+02 -4.910092102363705635e-04
-1.901987748468558550e+02 3.907752980012446642e-04
-1.901587698462307685e+02 -4.878877080045640469e-04
-1.901187648456057104e+02 3.876760601997375488e-04
-1.900787598449806239e+02 -4.848104435950517654e-04
-1.900387548443555374e+02 3.846205654554069042e-04
-1.899987498437304794e+02 -4.817764856852591038e-04
-1.899587448431053929e+02 3.816078824456781149e-04
-1.899187398424803064e+02 -4.787849029526114464e-04
-1.898787348418552199e+02 3.786371380556374788e-04
-1.898387298412301618e+02 -4.758347931783646345e-04
-1.897987248406050753e+02 3.757074591703712940e-04
-1.897587198399799888e+02 -4.729253123514354229e-04
-1.897187148393549307e+02 3.728179726749658585e-04
-1.896787098387298443e+02 -4.700555873569101095e-04
-1.896387048381047578e+02 3.699678345583379269e-04
-1.895986998374796713e+02 -4.672248323913663626e-04
-1.895586948368546132e+02 3.671562590170651674e-04
-1.895186898362295267e+02 -4.644322325475513935e-04
-1.894786848356044402e+02 3.643824311438947916e-04
-1.894386798349793821e+02 -4.616770311258733273e-04
-1.893986748343542956e+02 3.616456233430653811e-04
-1.893586698337292091e+02 -4.589584423229098320e-04
-1.893186648331041511e+02 3.589450789149850607e-04
-1.892786598324790646e+02 -4.562757385428994894e-04
-1.892386548318539781e+02 3.562800702638924122e-04
-1.891986498312288916e+02 -4.536282212939113379e-04
-1.891586448306038335e+02 3.536498697940260172e-04
-1.891186398299787470e+02 -4.510151920840144157e-04
-1.890786348293536605e+02 3.510538372211158276e-04
-1.890386298287286024e+02 -4.484359815251082182e-04
-1.889986248281035159e+02 3.484912740532308817e-04
-1.889586198274784294e+02 -4.458899202290922403e-04
-1.889186148268533429e+02 3.459615400061011314e-04
-1.888786098262282849e+02 -4.433763679116964340e-04
-1.888386048256031984e+02 3.434639947954565287e-04
-1.887985998249781119e+02 -4.408946842886507511e-04
-1.887585948243530538e+02 3.409980272408574820e-04
-1.887185898237279673e+02 -4.384442872833460569e-04
-1.886785848231028808e+02 3.385630552656948566e-04
-1.886385798224778227e+02 -4.360245366115123034e-04
-1.885985748218527362e+02 3.361584385856986046e-04
-1.885585698212276498e+02 -4.336349375080317259e-04
-1.885185648206025633e+02 3.337836533319205046e-04
-1.884785598199775052e+02 -4.312748496886342764e-04
-1.884385548193524187e+02 3.314381465315818787e-04
-1.883985498187273322e+02 -4.289437492843717337e-04
-1.883585448181022741e+02 3.291213361080735922e-04
-1.883185398174771876e+02 -4.266410833224654198e-04
-1.882785348168521011e+02 3.268326981924474239e-04
-1.882385298162270146e+02 -4.243663861416280270e-04
-1.881985248156019566e+02 3.245717671234160662e-04
-1.881585198149768701e+02 -4.221190756652504206e-04
-1.881185148143517836e+02 3.223379899282008410e-04
-1.880785098137267255e+02 -4.198986862320452929e-04
-1.880385048131016390e+02 3.201308718416839838e-04
-1.879984998124765525e+02 -4.177047521807253361e-04
-1.879584948118514944e+02 3.179499763064086437e-04
-1.879184898112264079e+02 -4.155367496423423290e-04
-1.878784848106013214e+02 3.157947794534265995e-04
-1.878384798099762349e+02 -4.133942711632698774e-04
-1.877984748093511769e+02 3.136648738291114569e-04
-1.877584698087260904e+02 -4.112768219783902168e-04
-1.877184648081010039e+02 3.115597937721759081e-04
-1.876784598074759458e+02 -4.091839655302464962e-04
-1.876384548068508593e+02 3.094790736213326454e-04
-1.875984498062257728e+02 -4.071152943652123213e-04
-1.875584448056006863e+02 3.074223350267857313e-04
-1.875184398049756282e+02 -4.050704010296612978e-04
-1.874784348043505418e+02 3.053891414310783148e-04
-1.874384298037254553e+02 -4.030488198623061180e-04
-1.873984248031003972e+02 3.033791144844144583e-04
-1.873584198024753107e+02 -4.010502016171813011e-04
-1.873184148018502242e+02 3.013917885255068541e-04
-1.872784098012251661e+02 -3.990741097368299961e-04
-1.872384048006000796e+02 2.994268434122204781e-04
-1.871983997999749931e+02 -3.971201949752867222e-04
-1.871583947993499066e+02 2.974838716909289360e-04
-1.871183897987248486e+02 -3.951880789827555418e-04
-1.870783847980997621e+02 2.955625241156667471e-04
-1.870383797974746756e+02 -3.932773834094405174e-04
-1.869983747968496175e+02 2.936623932328075171e-04
-1.869583697962245310e+02 -3.913877590093761683e-04
-1.869183647955994445e+02 2.917831880040466785e-04
-1.868783597949743580e+02 -3.895188565365970135e-04
-1.868383547943492999e+02 2.899245009757578373e-04
-1.867983497937242134e+02 -3.876703267451375723e-04
-1.867583447930991269e+02 2.880860411096364260e-04
-1.867183397924740689e+02 -3.858418494928628206e-04
-1.866783347918489824e+02 2.862674591597169638e-04
-1.866383297912238959e+02 -3.840330755338072777e-04
-1.865983247905988378e+02 2.844684058800339699e-04
-1.865583197899737513e+02 -3.822436847258359194e-04
-1.865183147893486648e+02 2.826886193361133337e-04
-1.864783097887235783e+02 -3.804734151344746351e-04
-1.864383047880985202e+02 2.809277502819895744e-04
-1.863982997874734338e+02 -3.787218884099274874e-04
-1.863582947868483473e+02 2.791855076793581247e-04
-1.863182897862232892e+02 -3.769888426177203655e-04
-1.862782847855982027e+02 2.774616004899144173e-04
-1.862382797849731162e+02 -3.752739867195487022e-04
-1.861982747843480297e+02 2.757557085715234280e-04
-1.861582697837229716e+02 -3.735770005732774734e-04
-1.861182647830978851e+02 2.740675699897110462e-04
-1.860782597824727986e+02 -3.718976513482630253e-04
-1.860382547818477406e+02 2.723969228100031614e-04
-1.859982497812226541e+02 -3.702356480062007904e-04
-1.859582447805975676e+02 2.707434759940952063e-04
-1.859182397799725095e+02 -3.685906995087862015e-04
-1.858782347793474230e+02 2.691069676075130701e-04
-1.858382297787223365e+02 -3.669625439215451479e-04
-1.857982247780972500e+02 2.674871357157826424e-04
-1.857582197774721919e+02 -3.653509775176644325e-04
-1.857182147768471054e+02 2.658837183844298124e-04
-1.856782097762220189e+02 -3.637556510511785746e-04
-1.856382047755969609e+02 2.642964827828109264e-04
-1.855981997749718744e+02 -3.621764190029352903e-04
-1.855581947743467879e+02 2.627251669764518738e-04
-1.855181897737217014e+02 -3.606129612307995558e-04
-1.854781847730966433e+02 2.611695090308785439e-04
-1.854381797724715568e+02 -3.590650740079581738e-04
-1.853981747718464703e+02 2.596293343231081963e-04
-1.853581697712214122e+02 -3.575325245037674904e-04
-1.853181647705963258e+02 2.581043518148362637e-04
-1.852781597699712393e+02 -3.560150798875838518e-04
-1.852381547693461812e+02 2.565943577792495489e-04
-1.851981497687210947e+02 -3.545125073287636042e-04
-1.851581447680960082e+02 2.550991484895348549e-04
-1.851181397674709217e+02 -3.530245739966630936e-04
-1.850781347668458636e+02 2.536184911150485277e-04
-1.850381297662207771e+02 -3.515511052682995796e-04
-1.849981247655956906e+02 2.521521528251469135e-04
-1.849581197649706326e+02 -3.500918683130294085e-04
-1.849181147643455461e+02 2.506999589968472719e-04
-1.848781097637204596e+02 -3.486466594040393829e-04
-1.848381047630953731e+02 2.492616767995059490e-04
-1.847980997624703150e+02 -3.472152748145163059e-04
-1.847580947618452285e+02 2.478371316101402044e-04
-1.847180897612201420e+02 -3.457975108176469803e-04
-1.846780847605950839e+02 2.464261197019368410e-04
-1.846380797599699974e+02 -3.443931927904486656e-04
-1.845980747593449109e+02 2.450284082442522049e-04
-1.845580697587198529e+02 -3.430020879022777081e-04
-1.845180647580947664e+02 2.436438662698492408e-04
-1.844780597574696799e+02 -3.416240215301513672e-04
-1.844380547568445934e+02 2.422722754999995232e-04
-1.843980497562195353e+02 -3.402588481549173594e-04
-1.843580447555944488e+02 2.409134613117203116e-04
-1.843180397549693623e+02 -3.389063640497624874e-04
-1.842780347543443042e+02 2.395672345301136374e-04
-1.842380297537192178e+02 -3.375663654878735542e-04
-1.841980247530941313e+02 2.382334350841119885e-04
-1.841580197524690448e+02 -3.362387069500982761e-04
-1.841180147518439867e+02 2.369118883507326245e-04
-1.840780097512189002e+02 -3.349232138134539127e-04
-1.840380047505938137e+02 2.356024051550775766e-04
-1.839979997499687556e+02 -3.336197114549577236e-04
-1.839579947493436691e+02 2.343048399779945612e-04
-1.839179897487185826e+02 -3.323280252516269684e-04
-1.838779847480935246e+02 2.330190181965008378e-04
-1.838379797474684381e+02 -3.310480387881398201e-04
-1.837979747468433516e+02 2.317447942914441228e-04
-1.837579697462182935e+02 -3.297795483376830816e-04
-1.837179647455932070e+02 2.304819936398416758e-04
-1.836779597449681205e+02 -3.285224083811044693e-04
-1.836379547443430340e+02 2.292304707225412130e-04
-1.835979497437179759e+02 -3.272764733992516994e-04
-1.835579447430928894e+02 2.279900800203904510e-04
-1.835179397424678029e+02 -3.260415687691420317e-04
-1.834779347418427164e+02 2.267606614623218775e-04
-1.834379297412176584e+02 -3.248175780754536390e-04
-1.833979247405925719e+02 2.255420695291832089e-04
-1.833579197399674854e+02 -3.236043557990342379e-04
-1.833179147393424273e+02 2.243341732537373900e-04
-1.832779097387173408e+02 -3.224017564207315445e-04
-1.832379047380922543e+02 2.231368125649169087e-04
-1.831978997374671962e+02 -3.212096053175628185e-04
-1.831578947368421098e+02 2.219498710473999381e-04
-1.831178897362170233e+02 -3.200278151780366898e-04
-1.830778847355919652e+02 2.207731886301189661e-04
-1.830378797349668787e+02 -3.188562404830008745e-04
-1.829978747343417922e+02 2.196066488977521658e-04
-1.829578697337167057e+02 -3.176947066094726324e-04
-1.829178647330916476e+02 2.184501208830624819e-04
-1.828778597324665611e+02 -3.165431262459605932e-04
-1.828378547318414746e+02 2.173034590668976307e-04
-1.827978497312163881e+02 -3.154013538733124733e-04
-1.827578447305913301e+02 2.161665470339357853e-04
-1.827178397299662436e+02 -3.142692730762064457e-04
-1.826778347293411571e+02 2.150392683688551188e-04
-1.826378297287160990e+02 -3.131467674393206835e-04
-1.825978247280910125e+02 2.139214921044185758e-04
-1.825578197274659260e+02 -3.120336914435029030e-04
-1.825178147268408679e+02 2.128130872733891010e-04
-1.824778097262157814e+02 -3.109299286734312773e-04
-1.824378047255906949e+02 2.117139520123600960e-04
-1.823977997249656369e+02 -3.098353918176144361e-04
-1.823577947243405504e+02 2.106239553540945053e-04
-1.823177897237154639e+02 -3.087499353569000959e-04
-1.822777847230903774e+02 2.095430099871009588e-04
-1.822377797224653193e+02 -3.076734428759664297e-04
-1.821977747218402328e+02 2.084709703922271729e-04
-1.821577697212151463e+02 -3.066058270633220673e-04
-1.821177647205900598e+02 2.074077347060665488e-04
-1.820777597199650018e+02 -3.055469423998147249e-04
-1.820377547193399153e+02 2.063532010652124882e-04
-1.819977497187148288e+02 -3.044967306777834892e-04
-1.819577447180897707e+02 2.053072676062583923e-04
-1.819177397174646842e+02 -3.034550463780760765e-04
-1.818777347168395977e+02 2.042698179138824344e-04
-1.818377297162145396e+02 -3.024218021892011166e-04
-1.817977247155894531e+02 2.032407501246780157e-04
-1.817577197149643666e+02 -3.013968816958367825e-04
-1.817177147143393086e+02 2.022199623752385378e-04
-1.816777097137142221e+02 -3.003802266903221607e-04
-1.816377047130891356e+02 2.012073673540726304e-04
-1.815976997124640491e+02 -2.993716625496745110e-04
-1.815576947118389910e+02 2.002028340939432383e-04
-1.815176897112139045e+02 -2.983711310662329197e-04
-1.814776847105888180e+02 1.992063043871894479e-04
-1.814376797099637315e+02 -2.973785740323364735e-04
-1.813976747093386734e+02 1.982176618184894323e-04
-1.813576697087135869e+02 -2.963938168250024319e-04
-1.813176647080885004e+02 1.972368045244365931e-04
-1.812776597074634424e+02 -2.954168303404003382e-04
-1.812376547068383559e+02 1.962636597454547882e-04
-1.811976497062132694e+02 -2.944474981632083654e-04
-1.811576447055882113e+02 1.952981256181374192e-04
-1.811176397049631248e+02 -2.934857329819351435e-04
-1.810776347043380383e+02 1.943401002790778875e-04
-1.810376297037129802e+02 -2.925314474850893021e-04
-1.809976247030878937e+02 1.933895255206152797e-04
-1.809576197024628073e+02 -2.915845543611794710e-04
-1.809176147018377208e+02 1.924462994793429971e-04
-1.808776097012126627e+02 -2.906449662987142801e-04
-1.808376047005875762e+02 1.915103202918544412e-04
-1.807975996999624897e+02 -2.897125959862023592e-04
-1.807575946993374032e+02 1.905815297504886985e-04
-1.807175896987123451e+02 -2.887873561121523380e-04
-1.806775846980872586e+02 1.896598405437543988e-04
-1.806375796974621721e+02 -2.878691884689033031e-04
-1.805975746968371141e+02 1.887451508082449436e-04
-1.805575696962120276e+02 -2.869579766411334276e-04
-1.805175646955869411e+02 1.878374023362994194e-04
-1.804775596949618830e+02 -2.860536624211817980e-04
-1.804375546943367965e+02 1.869365078164264560e-04
-1.803975496937117100e+02 -2.851561584975570440e-04
-1.803575446930866519e+02 1.860423799371346831e-04
-1.803175396924615654e+02 -2.842654066625982523e-04
-1.802775346918364789e+02 1.851549604907631874e-04
-1.802375296912113924e+02 -2.833812905009835958e-04
-1.801975246905863344e+02 1.842741621658205986e-04
-1.801575196899612479e+02 -2.825037809088826180e-04
-1.801175146893361614e+02 1.833999122027307749e-04
-1.800775096887110749e+02 -2.816327905748039484e-04
-1.800375046880860168e+02 1.825321378419175744e-04
-1.799974996874609303e+02 -2.807682321872562170e-04
-1.799574946868358438e+02 1.816707663238048553e-04
-1.799174896862107857e+02 -2.799100184347480536e-04
-1.798774846855856993e+02 1.808157248888164759e-04
-1.798374796849606128e+02 -2.790581202134490013e-04
-1.797974746843355547e+02 1.799669553292915225e-04
-1.797574696837104682e+02 -2.782124502118676901e-04
-1.797174646830853817e+02 1.791243703337386250e-04
-1.796774596824603236e+02 -2.773729502223432064e-04
-1.796374546818352371e+02 1.782879116944968700e-04
-1.795974496812101506e+02 -2.765395329333841801e-04
-1.795574446805850641e+02 1.774575212039053440e-04
-1.795174396799600061e+02 -2.757121401373296976e-04
-1.794774346793349196e+02 1.766331115504726768e-04
-1.794374296787098331e+02 -2.748906845226883888e-04
-1.793974246780847466e+02 1.758146245265379548e-04
-1.793574196774596885e+02 -2.740751660894602537e-04
-1.793174146768346020e+02 1.750020164763554931e-04
-1.792774096762095155e+02 -2.732654393184930086e-04
-1.792374046755844574e+02 1.741952000884339213e-04
-1.791973996749593709e+02 -2.724615042097866535e-04
-1.791573946743342844e+02 1.733941171551123261e-04
-1.791173896737092264e+02 -2.716632734518498182e-04
-1.790773846730841399e+02 1.725987094687297940e-04
-1.790373796724590534e+02 -2.708706888370215893e-04
-1.789973746718339953e+02 1.718089188216254115e-04
-1.789573696712089088e+02 -2.700836921576410532e-04
-1.789173646705838223e+02 1.710246870061382651e-04
-1.788773596699587358e+02 -2.693021961022168398e-04
-1.788373546693336777e+02 1.702459558146074414e-04
-1.787973496687085913e+02 -2.685262006707489491e-04
-1.787573446680835048e+02 1.694726524874567986e-04
-1.787173396674584183e+02 -2.677555894479155540e-04
-1.786773346668333602e+02 1.687047479208558798e-04
-1.786373296662082737e+02 -2.669903624337166548e-04
-1.785973246655831872e+02 1.679421548033133149e-04
-1.785573196649581291e+02 -2.662304032128304243e-04
-1.785173146643330426e+02 1.671848294790834188e-04
-1.784773096637079561e+02 -2.654756826814264059e-04
-1.784373046630828981e+02 1.664327282924205065e-04
-1.783972996624578116e+02 -2.647261717356741428e-04
-1.783572946618327251e+02 1.656857784837484360e-04
-1.783172896612076670e+02 -2.639817830640822649e-04
-1.782772846605825805e+02 1.649439363973215222e-04
-1.782372796599574940e+02 -2.632424875628203154e-04
-1.781972746593324075e+02 1.642071583773940802e-04
-1.781572696587073494e+02 -2.625081979203969240e-04
-1.781172646580822629e+02 1.634753716643899679e-04
-1.780772596574571764e+02 -2.617789141368120909e-04
-1.780372546568320899e+02 1.627485471544787288e-04
-1.779972496562070319e+02 -2.610545489005744457e-04
-1.779572446555819454e+02 1.620266120880842209e-04
-1.779172396549568589e+02 -2.603350440040230751e-04
-1.778772346543318008e+02 1.613095373613759875e-04
-1.778372296537067143e+02 -2.596203703433275223e-04
-1.777972246530816278e+02 1.605972647666931152e-04
-1.777572196524565697e+02 -2.589104697108268738e-04
-1.777172146518314833e+02 1.598897360963746905e-04
-1.776772096512063968e+02 -2.582053130026906729e-04
-1.776372046505813387e+02 1.591869222465902567e-04
-1.775971996499562522e+02 -2.575048420112580061e-04
-1.775571946493311657e+02 1.584887650096789002e-04
-1.775171896487060792e+02 -2.568089985288679600e-04
-1.774771846480810211e+02 1.577952207298949361e-04
-1.774371796474559346e+02 -2.561177243478596210e-04
-1.773971746468308481e+02 1.571062457514926791e-04
-1.773571696462057616e+02 -2.554310194682329893e-04
-1.773171646455807036e+02 1.564217964187264442e-04
-1.772771596449556171e+02 -2.547487965784966946e-04
-1.772371546443305306e+02 1.557418145239353180e-04
-1.771971496437054725e+02 -2.540710556786507368e-04
-1.771571446430803860e+02 1.550662709632888436e-04
-1.771171396424552995e+02 -2.533977094572037458e-04
-1.770771346418302414e+02 1.543951075291261077e-04
-1.770371296412051549e+02 -2.527287288103252649e-04
-1.769971246405800684e+02 1.537282951176166534e-04
-1.769571196399550104e+02 -2.520640555303543806e-04
-1.769171146393299239e+02 1.530657755210995674e-04
-1.768771096387048374e+02 -2.514036896172910929e-04
-1.768371046380797509e+02 1.524075341876596212e-04
-1.767970996374546928e+02 -2.507475728634744883e-04
-1.767570946368296063e+02 1.517535129096359015e-04