-2.000000000000000000e+02 -4.638579208403825760e-03
-1.999599949993749135e+02 4.353864118456840515e-03
-1.999199899987498554e+02 -4.281293600797653198e-03
-1.998799849981247689e+02 4.024513065814971924e-03
-1.998399799974996824e+02 -3.976739943027496338e-03
-1.997999749968745959e+02 3.742072964087128639e-03
-1.997599699962495379e+02 -3.714107442647218704e-03
-1.997199649956244514e+02 3.497242461889982224e-03
-1.996799599949993649e+02 -3.485334105789661407e-03
-1.996399549943743068e+02 3.283002413809299469e-03
-1.995999499937492203e+02 -3.284290432929992676e-03
-1.995599449931241338e+02 3.093973267823457718e-03
-1.995199399924990757e+02 -3.106230869889259338e-03
-1.994799349918739892e+02 2.925956388935446739e-03
-1.994399299912489028e+02 -2.947431989014148712e-03
-1.993999249906238163e+02 2.775634871795773506e-03
-1.993599199899987582e+02 -2.804923802614212036e-03
-1.993199149893736717e+02 2.640347462147474289e-03
-1.992799099887485852e+02 -2.676320495083928108e-03
-1.992399049881235271e+02 2.517942339181900024e-03
-1.991998999874984406e+02 -2.559674205258488655e-03
-1.991598949868733541e+02 2.406654180958867073e-03
-1.991198899862482676e+02 -2.453385852277278900e-03
-1.990798849856232096e+02 2.305032452568411827e-03
-1.990398799849981231e+02 -2.356123644858598709e-03
-1.989998749843730366e+02 2.211857121437788010e-03
-1.989598699837479785e+02 -2.266780007630586624e-03
-1.989198649831228920e+02 2.126110950484871864e-03
-1.988798599824978055e+02 -2.184416400268673897e-03
-1.988398549818727474e+02 2.046932466328144073e-03
-1.987998499812476609e+02 -2.108240034431219101e-03
-1.987598449806225744e+02 1.973588019609451294e-03
-1.987198399799974879e+02 -2.037567552179098129e-03
-1.986798349793724299e+02 1.905450597405433655e-03
-1.986398299787473434e+02 -1.971826888620853424e-03
-1.985998249781222569e+02 1.841973280534148216e-03
-1.985598199774971988e+02 -1.910502789542078972e-03
-1.985198149768721123e+02 1.782692153938114643e-03
-1.984798099762470258e+02 -1.853162772022187710e-03
-1.984398049756219393e+02 1.727196737192571163e-03
-1.983997999749968812e+02 -1.799424993805587292e-03
-1.983597949743717948e+02 1.675133593380451202e-03
-1.983197899737467083e+02 -1.748955924995243549e-03
-1.982797849731216502e+02 1.626185141503810883e-03
-1.982397799724965637e+02 -1.701463479548692703e-03
-1.981997749718714772e+02 1.580078736878931522e-03
-1.981597699712464191e+02 -1.656680949963629246e-03
-1.981197649706213326e+02 1.536568510346114635e-03
-1.980797599699962461e+02 -1.614385517314076424e-03
-1.980397549693711596e+02 1.495437114499509335e-03
-1.979997499687461016e+02 -1.574367517605423927e-03
-1.979597449681210151e+02 1.456495258025825024e-03
-1.979197399674959286e+02 -1.536451745778322220e-03
-1.978797349668708705e+02 1.419559004716575146e-03
-1.978397299662457840e+02 -1.500465790741145611e-03
-1.977997249656206975e+02 1.384483883157372475e-03
-1.977597199649956110e+02 -1.466266112402081490e-03
-1.977197149643705529e+02 1.351126353256404400e-03
-1.976797099637454664e+02 -1.433721045032143593e-03
-1.976397049631203799e+02 1.319362781941890717e-03
-1.975996999624953219e+02 -1.402709633111953735e-03
-1.975596949618702354e+02 1.289076288230717182e-03
-1.975196899612451489e+02 -1.373125822283327579e-03
-1.974796849606200908e+02 1.260168151929974556e-03
-1.974396799599950043e+02 -1.344866934232413769e-03
-1.973996749593699178e+02 1.232540351338684559e-03
-1.973596699587448313e+02 -1.317847985774278641e-03
-1.973196649581197732e+02 1.206109533086419106e-03
-1.972796599574946868e+02 -1.291986438445746899e-03
-1.972396549568696003e+02 1.180795603431761265e-03
-1.971996499562445422e+02 -1.267207204364240170e-03
-1.971596449556194557e+02 1.156534417532384396e-03
-1.971196399549943692e+02 -1.243442064151167870e-03
-1.970796349543692827e+02 1.133253448642790318e-03
-1.970396299537442246e+02 -1.220629666931927204e-03
-1.969996249531191381e+02 1.110895187593996525e-03
-1.969596199524940516e+02 -1.198710990138351917e-03
-1.969196149518689936e+02 1.089403871446847916e-03
-1.968796099512439071e+02 -1.177635625936090946e-03
-1.968396049506188206e+02 1.068730955012142658e-03
-1.967995999499937625e+02 -1.157350023277103901e-03
-1.967595949493686760e+02 1.048827660270035267e-03
-1.967195899487435895e+02 -1.137818675488233566e-03
-1.966795849481185030e+02 1.029651146382093430e-03
-1.966395799474934449e+02 -1.118990592658519745e-03
-1.965995749468683584e+02 1.011161832138895988e-03
-1.965595699462432719e+02 -1.100831781513988972e-03
-1.965195649456182139e+02 9.933200199156999588e-04
-1.964795599449931274e+02 -1.083302078768610954e-03
-1.964395549443680409e+02 9.760974789969623089e-04
-1.963995499437429544e+02 -1.066373544745147228e-03
-1.963595449431178963e+02 9.594560833647847176e-04
-1.963195399424928098e+02 -1.050013815984129906e-03
-1.962795349418677233e+02 9.433691739104688168e-04
-1.962395299412426652e+02 -1.034191809594631195e-03
-1.961995249406175787e+02 9.278072975575923920e-04
-1.961595199399924923e+02 -1.018882729113101959e-03
-1.961195149393674342e+02 9.127459488809108734e-04
-1.960795099387423477e+02 -1.004056888632476330e-03
-1.960395049381172612e+02 8.981610881164669991e-04
-1.959994999374921747e+02 -9.897046256810426712e-04
-1.959594949368671166e+02 8.840250084176659584e-04
-1.959194899362420301e+02 -9.757886291481554508e-04
-1.958794849356169436e+02 8.703224011696875095e-04
-1.958394799349918856e+02 -9.622944053262472153e-04
-1.957994749343667991e+02 8.570296922698616982e-04
-1.957594699337417126e+02 -9.492019307799637318e-04
-1.957194649331166261e+02 8.441332611255347729e-04
-1.956794599324915680e+02 -9.364939178340137005e-04
-1.956394549318664815e+02 8.316090679727494717e-04
-1.955994499312413950e+02 -9.241532534360885620e-04
-1.955594449306163369e+02 8.194468682631850243e-04
-1.955194399299912504e+02 -9.121618350036442280e-04
-1.954794349293661639e+02 8.076258236542344093e-04
-1.954394299287411059e+02 -9.005070896819233894e-04
-1.953994249281160194e+02 7.961337105371057987e-04
-1.953594199274909329e+02 -8.891740581020712852e-04
-1.953194149268658464e+02 7.849542889744043350e-04
-1.952794099262407883e+02 -8.781484793871641159e-04
-1.952394049256157018e+02 7.740799919702112675e-04
-1.951993999249906153e+02 -8.674188284203410149e-04
-1.951593949243655572e+02 7.634935900568962097e-04
-1.951193899237404707e+02 -8.569725905545055866e-04
-1.950793849231153843e+02 7.531861192546784878e-04
-1.950393799224902978e+02 -8.467976585961878300e-04
-1.949993749218652397e+02 7.431420381180942059e-04
-1.949593699212401532e+02 -8.368854760192334652e-04
-1.949193649206150667e+02 7.333564572036266327e-04
-1.948793599199900086e+02 -8.272224804386496544e-04
-1.948393549193649221e+02 7.238162797875702381e-04
-1.947993499187398356e+02 -8.178036659955978394e-04
-1.947593449181147776e+02 7.145136478357017040e-04
-1.947193399174896911e+02 -8.086159359663724899e-04
-1.946793349168646046e+02 7.054387242533266544e-04
-1.946393299162395181e+02 -7.996551576070487499e-04
-1.945993249156144600e+02 6.965817883610725403e-04
-1.945593199149893735e+02 -7.909024134278297424e-04
-1.945193149143642870e+02 6.879391730763018131e-04
-1.944793099137392289e+02 -7.823616033419966698e-04
-1.944393049131141424e+02 6.794991786591708660e-04
-1.943992999124890559e+02 -7.740210276097059250e-04
-1.943592949118639694e+02 6.712562171742320061e-04
-1.943192899112389114e+02 -7.658732938580214977e-04
-1.942792849106138249e+02 6.632020813412964344e-04
-1.942392799099887384e+02 -7.579115917906165123e-04
-1.941992749093636803e+02 6.553332204930484295e-04
-1.941592699087385938e+02 -7.501256186515092850e-04
-1.941192649081135073e+02 6.476377020590007305e-04
-1.940792599074884492e+02 -7.425221847370266914e-04
-1.940392549068633627e+02 6.401138380169868469e-04
-1.939992499062382763e+02 -7.350819068960845470e-04
-1.939592449056131898e+02 6.327554001472890377e-04
-1.939192399049881317e+02 -7.278054254129528999e-04
-1.938792349043630452e+02 6.255535408854484558e-04
-1.938392299037379587e+02 -7.206817972473800182e-04
-1.937992249031129006e+02 6.185110541991889477e-04
-1.937592199024878141e+02 -7.137128850445151329e-04
-1.937192149018627276e+02 6.116149015724658966e-04
-1.936792099012376411e+02 -7.068902486935257912e-04
-1.936392049006125831e+02 6.048650247976183891e-04
-1.935991998999874966e+02 -7.002094062045216560e-04
-1.935591948993624101e+02 5.982535076327621937e-04
-1.935191898987373520e+02 -6.936664576642215252e-04
-1.934791848981122655e+02 5.917787202633917332e-04
-1.934391798974871790e+02 -6.872563972137868404e-04
-1.933991748968621209e+02 5.854323972016572952e-04
-1.933591698962370344e+02 -6.809762562625110149e-04
-1.933191648956119479e+02 5.792158190160989761e-04
-1.932791598949868614e+02 -6.748213199898600578e-04
-1.932391548943618034e+02 5.731220589950680733e-04
-1.931991498937367169e+02 -6.687872228212654591e-04
-1.931591448931116304e+02 5.671504186466336250e-04
-1.931191398924865723e+02 -6.628721021115779877e-04
-1.930791348918614858e+02 5.612897220999002457e-04
-1.930391298912363993e+02 -6.570711848326027393e-04
-1.929991248906113128e+02 5.555442185141146183e-04
-1.929591198899862547e+02 -6.513803964480757713e-04
-1.929191148893611683e+02 5.499081453308463097e-04
-1.928791098887360818e+02 -6.457983981817960739e-04
-1.928391048881110237e+02 5.443788832053542137e-04
-1.927990998874859372e+02 -6.403204752132296562e-04
-1.927590948868608507e+02 5.389513098634779453e-04
-1.927190898862357926e+02 -6.349488976411521435e-04
-1.926790848856107061e+02 5.336260073818266392e-04
-1.926390798849856196e+02 -6.296673091128468513e-04
-1.925990748843605331e+02 5.283974460326135159e-04
-1.925590698837354751e+02 -6.244863034226000309e-04
-1.925190648831103886e+02 5.232635303400456905e-04
-1.924790598824853021e+02 -6.193982553668320179e-04
-1.924390548818602440e+02 5.182228051126003265e-04
-1.923990498812351575e+02 -6.144028156995773315e-04
-1.923590448806100710e+02 5.132702062837779522e-04
-1.923190398799849845e+02 -6.094943382777273655e-04
-1.922790348793599264e+02 5.084075382910668850e-04
-1.922390298787348399e+02 -6.046704947948455811e-04
-1.921990248781097534e+02 5.036254879087209702e-04
-1.921590198774846954e+02 -5.999343702569603920e-04
-1.921190148768596089e+02 4.989285371266305447e-04
-1.920790098762345224e+02 -5.952780484221875668e-04
-1.920390048756094643e+02 4.943115636706352234e-04
-1.919989998749843778e+02 -5.907053127884864807e-04
-1.919589948743592913e+02 4.897717735730111599e-04
-1.919189898737342048e+02 -5.862003890797495842e-04
-1.918789848731091467e+02 4.853117570746690035e-04
-1.918389798724840603e+02 -5.817767232656478882e-04
-1.917989748718589738e+02 4.809245874639600515e-04
-1.917589698712339157e+02 -5.774260498583316803e-04
-1.917189648706088292e+02 4.766111669596284628e-04
-1.916789598699837427e+02 -5.731473793275654316e-04
-1.916389548693586562e+02 4.723667225334793329e-04
-1.915989498687335981e+02 -5.689379177056252956e-04
-1.915589448681085116e+02 4.681939026340842247e-04
-1.915189398674834251e+02 -5.647966172546148300e-04
-1.914789348668583671e+02 4.640840343199670315e-04
-1.914389298662332806e+02 -5.607227794826030731e-04
-1.913989248656081941e+02 4.600425017997622490e-04
-1.913589198649831360e+02 -5.567133193835616112e-04
-1.913189148643580495e+02 4.560649394989013672e-04
-1.912789098637329630e+02 -5.527658504433929920e-04
-1.912389048631078765e+02 4.521522496361285448e-04
-1.911988998624828184e+02 -5.488834576681256294e-04
-1.911588948618577319e+02 4.482961958274245262e-04
-1.911188898612326454e+02 -5.450595635920763016e-04
-1.910788848606075874e+02 4.445015219971537590e-04
-1.910388798599825009e+02 -5.412941100075840950e-04
-1.909988748593574144e+02 4.407646774780005217e-04
-1.909588698587323279e+02 -5.375868640840053558e-04
-1.909188648581072698e+02 4.370865062810480595e-04
-1.908788598574821833e+02 -5.339353228919208050e-04
-1.908388548568570968e+02 4.334610712248831987e-04
-1.907988498562320387e+02 -5.303419311530888081e-04
-1.907588448556069523e+02 4.298941930755972862e-04
-1.907188398549818658e+02 -5.267967935651540756e-04
-1.906788348543568077e+02 4.263775481376796961e-04
-1.906388298537317212e+02 -5.233064293861389160e-04
-1.905988248531066347e+02 4.229132027830928564e-04
-1.905588198524815482e+02 -5.198650760576128960e-04
-1.905188148518564901e+02 4.195003130007535219e-04
-1.904788098512314036e+02 -5.164793110452592373e-04
-1.904388048506063171e+02 4.161357064731419086e-04
-1.903987998499812591e+02 -5.131394136697053909e-04
-1.903587948493561726e+02 4.128211585339158773e-04
-1.903187898487310861e+02 -5.098474211990833282e-04
-1.902787848481059996e+02 4.095519834663718939e-04
-1.902387798474809415e+02 -5.066030425950884819e-04
-1.901987748468558550e+02 4.063304222654551268e-04
-1.901587698462307685e+02 -5.034045316278934479e-04
-1.901187648456057104e+02 4.031518765259534121e-04
-1.900787598449806239e+02 -5.002563120797276497e-04
-1.900387548443555374e+02 4.000223416369408369e-04
-1.899987498437304794e+02 -4.971406306140124798e-04
-1.899587448431053929e+02 3.969343961216509342e-04
-1.899187398424803064e+02 -4.940738435834646225e-04
-1.898787348418552199e+02 3.938887093681842089e-04
-1.898387298412301618e+02 -4.910483257845044136e-04
-1.897987248406050753e+02 3.908865910489112139e-04
-1.897587198399799888e+02 -4.880666383542120457e-04
-1.897187148393549307e+02 3.879225696437060833e-04
-1.896787098387298443e+02 -4.851227567996829748e-04
-1.896387048381047578e+02 3.850014181807637215e-04
-1.895986998374796713e+02 -4.822200571652501822e-04
-1.895586948368546132e+02 3.821155114565044641e-04
-1.895186898362295267e+02 -4.793558036908507347e-04
-1.894786848356044402e+02 3.792702918872237206e-04
-1.894386798349793821e+02 -4.765293560922145844e-04
-1.893986748343542956e+02 3.764623543247580528e-04
-1.893586698337292091e+02 -4.737389681395143270e-04
-1.893186648331041511e+02 3.736931830644607544e-04
-1.892786598324790646e+02 -4.709882196038961411e-04
-1.892386548318539781e+02 3.709576558321714401e-04
-1.891986498312288916e+02 -4.682713770307600498e-04
-1.891586448306038335e+02 3.682583919726312160e-04
-1.891186398299787470e+02 -4.655899829231202602e-04
-1.890786348293536605e+02 3.655920154415071011e-04
-1.890386298287286024e+02 -4.629419418051838875e-04
-1.889986248281035159e+02 3.629635612014681101e-04
-1.889586198274784294e+02 -4.603282723110169172e-04
-1.889186148268533429e+02 3.603655495680868626e-04
-1.888786098262282849e+02 -4.577489453367888927e-04
-1.888386048256031984e+02 3.578029864002019167e-04
-1.887985998249781119e+02 -4.552002937998622656e-04
-1.887585948243530538e+02 3.552707494236528873e-04
-1.887185898237279673e+02 -4.526842094492167234e-04
-1.886785848231028808e+02 3.527715161908417940e-04
-1.886385798224778227e+02 -4.501949006225913763e-04
-1.885985748218527362e+02 3.503003972582519054e-04
-1.885585698212276498e+02 -4.477447946555912495e-04
-1.885185648206025633e+02 3.478613507468253374e-04
-1.884785598199775052e+02 -4.453207948245108128e-04
-1.884385548193524187e+02 3.454523684922605753e-04
-1.883985498187273322e+02 -4.429263353813439608e-04
-1.883585448181022741e+02 3.430719079915434122e-04
-1.883185398174771876e+02 -4.405603685881942511e-04
-1.882785348168521011e+02 3.407206677366048098e-04
-1.882385298162270146e+02 -4.382238548714667559e-04
-1.881985248156019566e+02 3.383935545571148396e-04
-1.881585198149768701e+02 -4.359179583843797445e-04
-1.881185148143517836e+02 3.361028793733566999e-04
-1.880785098137267255e+02 -4.336326965130865574e-04
-1.880385048131016390e+02 3.338342648930847645e-04
-1.879984998124765525e+02 -4.313776444178074598e-04
-1.879584948118514944e+02 3.315928042866289616e-04
-1.879184898112264079e+02 -4.291459918022155762e-04
-1.878784848106013214e+02 3.293786139693111181e-04
-1.878384798099762349e+02 -4.269475757610052824e-04
-1.877984748093511769e+02 3.271883470006287098e-04
-1.877584698087260904e+02 -4.247698816470801830e-04
-1.877184648081010039e+02 3.250248264521360397e-04
-1.876784598074759458e+02 -4.226189048495143652e-04
-1.876384548068508593e+02 3.228842979297041893e-04
-1.875984498062257728e+02 -4.204916476737707853e-04
-1.875584448056006863e+02 3.207696136087179184e-04
-1.875184398049756282e+02 -4.183891287539154291e-04
-1.874784348043505418e+02 3.186774265486747026e-04
-1.874384298037254553e+02 -4.163093399256467819e-04
-1.873984248031003972e+02 3.166120150126516819e-04
-1.873584198024753107e+02 -4.142545512877404690e-04
-1.873184148018502242e+02 3.145678492728620768e-04
-1.872784098012251661e+02 -4.122219979763031006e-04
-1.872384048006000796e+02 3.125466173514723778e-04
-1.871983997999749931e+02 -4.102138045709580183e-04
-1.871583947993499066e+02 3.105456416960805655e-04
-1.871183897987248486e+02 -4.082235973328351974e-04
-1.870783847980997621e+02 3.085708594880998135e-04
-1.870383797974746756e+02 -4.062576044816523790e-04
-1.869983747968496175e+02 3.066157805733382702e-04
-1.869583697962245310e+02 -4.043139924760907888e-04
-1.869183647955994445e+02 3.046827041544020176e-04
-1.868783597949743580e+02 -4.023908404633402824e-04
-1.868383547943492999e+02 3.027696511708199978e-04
-1.867983497937242134e+02 -4.004885850008577108e-04
-1.867583447930991269e+02 3.008806961588561535e-04
-1.867183397924740689e+02 -3.986028314102441072e-04
-1.866783347918489824e+02 2.990045759361237288e-04
-1.866383297912238959e+02 -3.967441734857857227e-04
-1.865983247905988378e+02 2.971532521769404411e-04
-1.865583197899737513e+02 -3.949025121983140707e-04
-1.865183147893486648e+02 2.953212824650108814e-04
-1.864783097887235783e+02 -3.930813691113144159e-04
-1.864383047880985202e+02 2.935083757620304823e-04
-1.863982997874734338e+02 -3.912767861038446426e-04
-1.863582947868483473e+02 2.917147066909819841e-04
-1.863182897862232892e+02 -3.894934197887778282e-04
-1.862782847855982027e+02 2.899365208577364683e-04
-1.862382797849731162e+02 -3.877278941217809916e-04
-1.861982747843480297e+02 2.881834516301751137e-04
-1.861582697837229716e+02 -3.859794232994318008e-04
-1.861182647830978851e+02 2.864448761101812124e-04
-1.860782597824727986e+02 -3.842497826553881168e-04
-1.860382547818477406e+02 2.847262658178806305e-04
-1.859982497812226541e+02 -3.825325402431190014e-04
-1.859582447805975676e+02 2.830208977684378624e-04
-1.859182397799725095e+02 -3.808435867540538311e-04
-1.858782347793474230e+02 2.813353494275361300e-04
-1.858382297787223365e+02 -3.791663621086627245e-04
-1.857982247780972500e+02 2.796669723466038704e-04
-1.857582197774721919e+02 -3.775068907998502254e-04
-1.857182147768471054e+02 2.780142531264573336e-04
-1.856782097762220189e+02 -3.758624952752143145e-04
-1.856382047755969609e+02 2.763792581390589476e-04
-1.855981997749718744e+02 -3.742365806829184294e-04
-1.855581947743467879e+02 2.747580001596361399e-04
-1.855181897737217014e+02 -3.726241993717849255e-04
-1.854781847730966433e+02 2.731573767960071564e-04
-1.854381797724715568e+02 -3.710293967742472887e-04
-1.853981747718464703e+02 2.715702285058796406e-04
-1.853581697712214122e+02 -3.694501065183430910e-04
-1.853181647705963258e+02 2.699983888305723667e-04
-1.852781597699712393e+02 -3.678889188449829817e-04
-1.852381547693461812e+02 2.684411301743239164e-04
-1.851981497687210947e+02 -3.663368406705558300e-04
-1.851581447680960082e+02 2.669009845703840256e-04
-1.851181397674709217e+02 -3.648028941825032234e-04
-1.850781347668458636e+02 2.653746632859110832e-04
-1.850381297662207771e+02 -3.632841981016099453e-04
-1.849981247655956906e+02 2.638641453813761473e-04
-1.849581197649706326e+02 -3.617804613895714283e-04
-1.849181147643455461e+02 2.623660839162766933e-04
-1.848781097637204596e+02 -3.602901415433734655e-04
-1.848381047630953731e+02 2.608866489026695490e-04
-1.847980997624703150e+02 -3.588130348362028599e-04
-1.847580947618452285e+02 2.594135294202715158e-04
-1.847180897612201420e+02 -3.573520807549357414e-04
-1.846780847605950839e+02 2.579587744548916817e-04
-1.846380797599699974e+02 -3.559039323590695858e-04
-1.845980747593449109e+02 2.565165050327777863e-04
-1.845580697587198529e+02 -3.544723731465637684e-04
-1.845180647580947664e+02 2.550902136135846376e-04
-1.844780597574696799e+02 -3.530486137606203556e-04
-1.844380547568445934e+02 2.536754473112523556e-04
-1.843980497562195353e+02 -3.516410652082413435e-04
-1.843580447555944488e+02 2.522726135794073343e-04
-1.843180397549693623e+02 -3.502454783301800489e-04
-1.842780347543443042e+02 2.508851757738739252e-04
-1.842380297537192178e+02 -3.488632210064679384e-04
-1.841980247530941313e+02 2.495093795005232096e-04
-1.841580197524690448e+02 -3.474929835647344589e-04
-1.841180147518439867e+02 2.481510746292769909e-04
-1.840780097512189002e+02 -3.461316518951207399e-04
-1.840380047505938137e+02 2.467936719767749310e-04
-1.839979997499687556e+02 -3.447907802183181047e-04
-1.839579947493436691e+02 2.454554778523743153e-04
-1.839179897487185826e+02 -3.434583195485174656e-04
-1.838779847480935246e+02 2.441288961563259363e-04
-1.838379797474684381e+02 -3.421395958866924047e-04
-1.837979747468433516e+02 2.428135921945795417e-04
-1.837579697462182935e+02 -3.408283810131251812e-04
-1.837179647455932070e+02 2.415104536339640617e-04
-1.836779597449681205e+02 -3.395327657926827669e-04
-1.836379547443430340e+02 2.402173849986866117e-04
-1.835979497437179759e+02 -3.382448048796504736e-04
-1.835579447430928894e+02 2.389388391748070717e-04
-1.835179397424678029e+02 -3.369704936631023884e-04
-1.834779347418427164e+02 2.376698539592325687e-04
-1.834379297412176584e+02 -3.357070381753146648e-04
-1.833979247405925719e+02 2.364119718549773097e-04
-1.833579197399674854e+02 -3.344570868648588657e-04
-1.833179147393424273e+02 2.351650036871433258e-04
-1.832779097387173408e+02 -3.332131891511380672e-04
-1.832379047380922543e+02 2.339289931114763021e-04
-1.831978997374671962e+02 -3.319822426419705153e-04
-1.831578947368421098e+02 2.327034308109432459e-04
-1.831178897362170233e+02 -3.307607548777014017e-04
-1.830778847355919652e+02 2.314900193596258759e-04
-1.830378797349668787e+02 -3.295531787443906069e-04
-1.829978747343417922e+02 2.302842622157186270e-04
-1.829578697337167057e+02 -3.283534024376422167e-04
-1.829178647330916476e+02 2.290918055223301053e-04
-1.828778597324665611e+02 -3.271642781328409910e-04
-1.828378547318414746e+02 2.279057080158963799e-04
-1.827978497312163881e+02 -3.259850782342255116e-04
-1.827578447305913301e+02 2.267315867356956005e-04
-1.827178397299662436e+02 -3.248158027417957783e-04
-1.826778347293411571e+02 2.255639556096866727e-04
-1.826378297287160990e+02 -3.236597694922238588e-04
-1.825978247280910125e+02 2.244141942355781794e-04
-1.825578197274659260e+02 -3.225076943635940552e-04
-1.825178147268408679e+02 2.232689730590209365e-04
-1.824778097262157814e+02 -3.213674935977905989e-04
-1.824378047255906949e+02 2.221331960754469037e-04
-1.823977997249656369e+02 -3.202363150194287300e-04
-1.823577947243405504e+02 2.210072998423129320e-04
-1.823177897237154639e+02 -3.191153518855571747e-04
-1.822777847230903774e+02 2.198907313868403435e-04
-1.822377797224653193e+02 -3.180013154633343220e-04
-1.821977747218402328e+02 2.187890204368159175e-04
-1.821577697212151463e+02 -3.168984258081763983e-04
-1.821177647205900598e+02 2.176838752347975969e-04
-1.820777597199650018e+02 -3.158057224936783314e-04
-1.820377547193399153e+02 2.165945188608020544e-04
-1.819977497187148288e+02 -3.147206152789294720e-04
-1.819577447180897707e+02 2.155125112039968371e-04
-1.819177397174646842e+02 -3.136483719572424889e-04
-1.818777347168395977e+02 2.144424797734245658e-04
-1.818377297162145396e+02 -3.125770308542996645e-04
-1.817977247155894531e+02 2.133784728357568383e-04
-1.817577197149643666e+02 -3.115188155788928270e-04
-1.817177147143393086e+02 2.123231679433956742e-04
-1.816777097137142221e+02 -3.104665374848991632e-04
-1.816377047130891356e+02 2.112772781401872635e-04
-1.815976997124640491e+02 -3.094245621468871832e-04
-1.815576947118389910e+02 2.102389553328976035e-04
-1.815176897112139045e+02 -3.083895135205239058e-04
-1.814776847105888180e+02 2.092099603032693267e-04
-1.814376797099637315e+02 -3.073657862842082977e-04
-1.813976747093386734e+02 2.081873244605958462e-04
-1.813576697087135869e+02 -3.063468320760875940e-04
-1.813176647080885004e+02 2.071732014883309603e-04
-1.812776597074634424e+02 -3.053366963285952806e-04
-1.812376547068383559e+02 2.061675186268985271e-04
-1.811976497062132694e+02 -3.043315082322806120e-04
-1.811576447055882113e+02 2.051696501439437270e-04
-1.811176397049631248e+02 -3.033407265320420265e-04
-1.810776347043380383e+02 2.041782863670960069e-04
-1.810376297037129802e+02 -3.023543395102024078e-04
-1.809976247030878937e+02 2.031960902968421578e-04
-1.809576197024628073e+02 -3.013750538229942322e-04
-1.809176147018377208e+02 2.022200787905603647e-04
-1.808776097012126627e+02 -3.004031023010611534e-04
-1.808376047005875762e+02 2.012525219470262527e-04
-1.807975996999624897e+02 -2.994397073052823544e-04
-1.807575946993374032e+02 2.002866240218281746e-04
-1.807175896987123451e+02 -2.984835591632872820e-04
-1.806775846980872586e+02 1.993396726902574301e-04
-1.806375796974621721e+02 -2.975331735797226429e-04
-1.805975746968371141e+02 1.983936090255156159e-04
-1.805575696962120276e+02 -2.965907915495336056e-04
-1.805175646955869411e+02 1.974551705643534660e-04
-1.804775596949618830e+02 -2.956541429739445448e-04
-1.804375546943367965e+02 1.965224364539608359e-04
-1.803975496937117100e+02 -2.947268367279320955e-04
-1.803575446930866519e+02 1.955979387275874615e-04
-1.803175396924615654e+02 -2.938031684607267380e-04
-1.802775346918364789e+02 1.946833071997389197e-04
-1.802375296912113924e+02 -2.928909962065517902e-04
-1.801975246905863344e+02 1.937687775352969766e-04
-1.801575196899612479e+02 -2.919832477346062660e-04
-1.801175146893361614e+02 1.928642013808712363e-04
-1.800775096887110749e+02 -2.910824841819703579e-04
-1.800375046880860168e+02 1.919617498060688376e-04
-1.799974996874609303e+02 -2.901919651776552200e-04
-1.799574946868358438e+02 1.910769206006079912e-04
-1.799174896862107857e+02 -2.893008640967309475e-04
-1.798774846855856993e+02 1.901915820781141520e-04
-1.798374796849606128e+02 -2.884194545913487673e-04
-1.797974746843355547e+02 1.893132575787603855e-04
-1.797574696837104682e+02 -2.875430800486356020e-04
-1.797174646830853817e+02 1.884414668893441558e-04
-1.796774596824603236e+02 -2.866753784473985434e-04
-1.796374546818352371e+02 1.875762245617806911e-04
-1.795974496812101506e+02 -2.858106745406985283e-04
-1.795574446805850641e+02 1.867182727437466383e-04
-1.795174396799600061e+02 -2.849576412700116634e-04
-1.794774346793349196e+02 1.858639589045196772e-04
-1.794374296787098331e+02 -2.841072273440659046e-04
-1.793974246780847466e+02 1.850168919190764427e-04
-1.793574196774596885e+02 -2.832631871569901705e-04
-1.793174146768346020e+02 1.841771008912473917e-04
-1.792774096762095155e+02 -2.824217081069946289e-04
-1.792374046755844574e+02 1.833404530771076679e-04
-1.791973996749593709e+02 -2.815929765347391367e-04
-1.791573946743342844e+02 1.825111394282430410e-04
-1.791173896737092264e+02 -2.807673299685120583e-04
-1.790773846730841399e+02 1.816884469008073211e-04
-1.790373796724590534e+02 -2.799475041683763266e-04
-1.789973746718339953e+02 1.808703091228380799e-04
-1.789573696712089088e+02 -2.791316946968436241e-04
-1.789173646705838223e+02 1.800591126084327698e-04
-1.788773596699587358e+02 -2.783244999591261148e-04
-1.788373546693336777e+02 1.792486291378736496e-04
-1.787973496687085913e+02 -2.775191387627273798e-04
-1.787573446680835048e+02 1.784522755770012736e-04
-1.787173396674584183e+02 -2.767217520158737898e-04
-1.786773346668333602e+02 1.776575081748887897e-04
-1.786373296662082737e+02 -2.759297203738242388e-04
-1.785973246655831872e+02 1.768705697031691670e-04
-1.785573196649581291e+02 -2.751411520875990391e-04
-1.785173146643330426e+02 1.760831510182470083e-04
-1.784773096637079561e+02 -2.743610239122062922e-04
-1.784373046630828981e+02 1.753048272803425789e-04
-1.783972996624578116e+02 -2.735838643275201321e-04
-1.783572946618327251e+02 1.745323970681056380e-04
-1.783172896612076670e+02 -2.728145336732268333e-04
-1.782772846605825805e+02 1.737634884193539619e-04
-1.782372796599574940e+02 -2.720489283092319965e-04
-1.781972746593324075e+02 1.730003568809479475e-04
-1.781572696587073494e+02 -2.712907735258340836e-04
-1.781172646580822629e+02 1.722350862110033631e-04
-1.780772596574571764e+02 -2.705350634641945362e-04
-1.780372546568320899e+02 1.714908576104789972e-04
-1.779972496562070319e+02 -2.697837480809539557e-04
-1.779572446555819454e+02 1.707430346868932247e-04
-1.779172396549568589e+02 -2.690386900212615728e-04
-1.778772346543318008e+02 1.700010761851444840e-04
-1.778372296537067143e+02 -2.682961057871580124e-04
-1.777972246530816278e+02 1.692619844106957316e-04
-1.777572196524565697e+02 -2.675626601558178663e-04
-1.777172146518314833e+02 1.685302413534373045e-04
-1.776772096512063968e+02 -2.668298548087477684e-04
-1.776372046505813387e+02 1.678023982094600797e-04
-1.775971996499562522e+02 -2.661074395291507244e-04
-1.775571946493311657e+02 1.670786732574924827e-04
-1.775171896487060792e+02 -2.653865085449069738e-04
-1.774771846480810211e+02 1.663603761699050665e-04
-1.774371796474559346e+02 -2.646708453539758921e-04
-1.773971746468308481e+02 1.656479289522394538e-04
-1.773571696462057616e+02 -2.639568701852113008e-04
-1.773171646455807036e+02 1.649368641665205359e-04
-1.772771596449556171e+02 -2.632519172038882971e-04
-1.772371546443305306e+02 1.642326533328741789e-04
-1.771971496437054725e+02 -2.625500783324241638e-04
-1.771571446430803860e+02 1.635327935218811035e-04
-1.771171396424552995e+02 -2.618549042381346226e-04
-1.770771346418302414e+02 1.628376485314220190e-04
-1.770371296412051549e+02 -2.611593226902186871e-04
-1.769971246405800684e+02 1.621473056729882956e-04
-1.769571196399550104e+02 -2.604718902148306370e-04
-1.769171146393299239e+02 1.614590291865170002e-04
-1.768771096387048374e+02 -2.597860293462872505e-04
-1.768371046380797509e+02 1.607783924555405974e-04
-1.767970996374546928e+02 -2.591065713204443455e-04
-1.767570946368296063e+02 1.601007970748469234e-04