-2.000000000000000000e+02 -1.192634738981723785e-02
-1.999599949993749135e+02 1.120716705918312073e-02
-1.999199899987498554e+02 -1.097722072154283524e-02
-1.998799849981247689e+02 1.033132616430521011e-02
-1.998399799974996824e+02 -1.016653608530759811e-02
-1.997999749968745959e+02 9.578854776918888092e-03
-1.997599699962495379e+02 -9.466313757002353668e-03
-1.997199649956244514e+02 8.925656788051128387e-03
-1.996799599949993649e+02 -8.855598978698253632e-03
-1.996399549943743068e+02 8.353456854820251465e-03
-1.995999499937492203e+02 -8.318417705595493317e-03
-1.995599449931241338e+02 7.848201319575309753e-03
-1.995199399924990757e+02 -7.842354476451873779e-03
-1.994799349918739892e+02 7.398896850645542145e-03
-1.994399299912489028e+02 -7.417639251798391342e-03
-1.993999249906238163e+02 6.996803916990756989e-03
-1.993599199899987582e+02 -7.036462426185607910e-03
-1.993199149893736717e+02 6.634974386543035507e-03
-1.992799099887485852e+02 -6.692520808428525925e-03
-1.992399049881235271e+02 6.307656876742839813e-03
-1.991998999874984406e+02 -6.380663253366947174e-03
-1.991598949868733541e+02 6.010201759636402130e-03
-1.991198899862482676e+02 -6.096627563238143921e-03
-1.990798849856232096e+02 5.738721229135990143e-03
-1.990398799849981231e+02 -5.836909636855125427e-03
-1.989998749843730366e+02 5.490008275955915451e-03
-1.989598699837479785e+02 -5.598526448011398315e-03
-1.989198649831228920e+02 5.261329002678394318e-03
-1.988798599824978055e+02 -5.378977395594120026e-03
-1.988398549818727474e+02 5.050379317253828049e-03
-1.987998499812476609e+02 -5.176135338842868805e-03
-1.987598449806225744e+02 4.855191335082054138e-03
-1.987198399799974879e+02 -4.988171625882387161e-03
-1.986798349793724299e+02 4.674089141190052032e-03
-1.986398299787473434e+02 -4.813550505787134171e-03
-1.985998249781222569e+02 4.505586810410022736e-03
-1.985598199774971988e+02 -4.650877323001623154e-03
-1.985198149768721123e+02 4.348444286733865738e-03
-1.984798099762470258e+02 -4.498989786952733994e-03
-1.984398049756219393e+02 4.201550967991352081e-03
-1.983997999749968812e+02 -4.356856923550367355e-03
-1.983597949743717948e+02 4.063953179866075516e-03
-1.983197899737467083e+02 -4.223575815558433533e-03
-1.982797849731216502e+02 3.934791777282953262e-03
-1.982397799724965637e+02 -4.098359029740095139e-03
-1.981997749718714772e+02 3.813320072367787361e-03
-1.981597699712464191e+02 -3.980471752583980560e-03
-1.981197649706213326e+02 3.698884509503841400e-03
-1.980797599699962461e+02 -3.869323525577783585e-03
-1.980397549693711596e+02 3.590886481106281281e-03
-1.979997499687461016e+02 -3.764340188354253769e-03
-1.979597449681210151e+02 3.488830057904124260e-03
-1.979197399674959286e+02 -3.665046533569693565e-03
-1.978797349668708705e+02 3.392170649021863937e-03
-1.978397299662457840e+02 -3.570968285202980042e-03
-1.977997249656206975e+02 3.300555516034364700e-03
-1.977597199649956110e+02 -3.481719410046935081e-03
-1.977197149643705529e+02 3.213582094758749008e-03
-1.976797099637454664e+02 -3.396941814571619034e-03
-1.976397049631203799e+02 3.130915109068155289e-03
-1.975996999624953219e+02 -3.316303947940468788e-03
-1.975596949618702354e+02 3.052235813811421394e-03
-1.975196899612451489e+02 -3.239520825445652008e-03
-1.974796849606200908e+02 2.977255266159772873e-03
-1.974396799599950043e+02 -3.166299313306808472e-03
-1.973996749593699178e+02 2.905752044171094894e-03
-1.973596699587448313e+02 -3.096426837146282196e-03
-1.973196649581197732e+02 2.837462583556771278e-03
-1.972796599574946868e+02 -3.029670333489775658e-03
-1.972396549568696003e+02 2.772197825834155083e-03
-1.971996499562445422e+02 -2.965812338516116142e-03
-1.971596449556194557e+02 2.709714230149984360e-03
-1.971196399549943692e+02 -2.904691267758607864e-03
-1.970796349543692827e+02 2.649890026077628136e-03
-1.970396299537442246e+02 -2.846123185008764267e-03
-1.969996249531191381e+02 2.592538716271519661e-03
-1.969596199524940516e+02 -2.789956051856279373e-03
-1.969196149518689936e+02 2.537515247240662575e-03
-1.968796099512439071e+02 -2.736039459705352783e-03
-1.968396049506188206e+02 2.484677359461784363e-03
-1.967995999499937625e+02 -2.684235805645585060e-03
-1.967595949493686760e+02 2.433901419863104820e-03
-1.967195899487435895e+02 -2.634455217048525810e-03
-1.966795849481185030e+02 2.385063562542200089e-03
-1.966395799474934449e+02 -2.586547750979661942e-03
-1.965995749468683584e+02 2.338060177862644196e-03
-1.965595699462432719e+02 -2.540424698963761330e-03
-1.965195649456182139e+02 2.292779739946126938e-03
-1.964795599449931274e+02 -2.495977096259593964e-03
-1.964395549443680409e+02 2.249151002615690231e-03
-1.963995499437429544e+02 -2.453129505738615990e-03
-1.963595449431178963e+02 2.207066630944609642e-03
-1.963195399424928098e+02 -2.411794383078813553e-03
-1.962795349418677233e+02 2.166453516110777855e-03
-1.962395299412426652e+02 -2.371882321313023567e-03
-1.961995249406175787e+02 2.127232961356639862e-03
-1.961595199399924923e+02 -2.333331620320677757e-03
-1.961195149393674342e+02 2.089335117489099503e-03
-1.960795099387423477e+02 -2.296054968610405922e-03
-1.960395049381172612e+02 2.052718307822942734e-03
-1.959994999374921747e+02 -2.260047942399978638e-03
-1.959594949368671166e+02 2.017261460423469543e-03
-1.959194899362420301e+02 -2.225178759545087814e-03
-1.958794849356169436e+02 1.982956426218152046e-03
-1.958394799349918856e+02 -2.191423205658793449e-03
-1.957994749343667991e+02 1.949728233739733696e-03
-1.957594699337417126e+02 -2.158727264031767845e-03
-1.957194649331166261e+02 1.917552202939987183e-03
-1.956794599324915680e+02 -2.127041574567556381e-03
-1.956394549318664815e+02 1.886351965367794037e-03
-1.955994499312413950e+02 -2.096326090395450592e-03
-1.955594449306163369e+02 1.856093876995146275e-03
-1.955194399299912504e+02 -2.066516317427158356e-03
-1.954794349293661639e+02 1.826739404350519180e-03
-1.954394299287411059e+02 -2.037594793364405632e-03
-1.953994249281160194e+02 1.798242563381791115e-03
-1.953594199274909329e+02 -2.009514020755887032e-03
-1.953194149268658464e+02 1.770594622939825058e-03
-1.952794099262407883e+02 -1.982243498787283897e-03
-1.952394049256157018e+02 1.743687316775321960e-03
-1.951993999249906153e+02 -1.955737825483083725e-03
-1.951593949243655572e+02 1.717556151561439037e-03
-1.951193899237404707e+02 -1.929971622303128242e-03
-1.950793849231153843e+02 1.692144898697733879e-03
-1.950393799224902978e+02 -1.904919743537902832e-03
-1.949993749218652397e+02 1.667437609285116196e-03
-1.949593699212401532e+02 -1.880540861748158932e-03
-1.949193649206150667e+02 1.643390511162579060e-03
-1.948793599199900086e+02 -1.856809947639703751e-03
-1.948393549193649221e+02 1.619980204850435257e-03
-1.947993499187398356e+02 -1.833716873079538345e-03
-1.947593449181147776e+02 1.597186550498008728e-03
-1.947193399174896911e+02 -1.811221241950988770e-03
-1.946793349168646046e+02 1.574983471073210239e-03
-1.946393299162395181e+02 -1.789313857443630695e-03
-1.945993249156144600e+02 1.553338486701250076e-03
-1.945593199149893735e+02 -1.767938607372343540e-03
-1.945193149143642870e+02 1.532252412289381027e-03
-1.944793099137392289e+02 -1.747114351019263268e-03
-1.944393049131141424e+02 1.511687645688652992e-03
-1.943992999124890559e+02 -1.726805581711232662e-03
-1.943592949118639694e+02 1.491630217060446739e-03
-1.943192899112389114e+02 -1.706992741674184799e-03
-1.942792849106138249e+02 1.472058007493615150e-03
-1.942392799099887384e+02 -1.687658019363880157e-03
-1.941992749093636803e+02 1.452958560548722744e-03
-1.941592699087385938e+02 -1.668764511123299599e-03
-1.941192649081135073e+02 1.434315810911357403e-03
-1.940792599074884492e+02 -1.650362857617437840e-03
-1.940392549068633627e+02 1.416102168150246143e-03
-1.939992499062382763e+02 -1.632365048862993717e-03
-1.939592449056131898e+02 1.398314838297665119e-03
-1.939192399049881317e+02 -1.614787732250988483e-03
-1.938792349043630452e+02 1.380915520712733269e-03
-1.938392299037379587e+02 -1.597594819031655788e-03
-1.937992249031129006e+02 1.363942632451653481e-03
-1.937592199024878141e+02 -1.580802490934729576e-03
-1.937192149018627276e+02 1.347335637547075748e-03
-1.936792099012376411e+02 -1.564384438097476959e-03
-1.936392049006125831e+02 1.331099541857838631e-03
-1.935991998999874966e+02 -1.548322616145014763e-03
-1.935591948993624101e+02 1.315216068178415298e-03
-1.935191898987373520e+02 -1.532612601295113564e-03
-1.934791848981122655e+02 1.299676136113703251e-03
-1.934391798974871790e+02 -1.517231808975338936e-03
-1.933991748968621209e+02 1.284491620026528835e-03
-1.933591698962370344e+02 -1.502207829616963863e-03
-1.933191648956119479e+02 1.269595348276197910e-03
-1.932791598949868614e+02 -1.487479661591351032e-03
-1.932391548943618034e+02 1.255023642443120480e-03
-1.931991498937367169e+02 -1.473059528507292271e-03
-1.931591448931116304e+02 1.240743440575897694e-03
-1.931191398924865723e+02 -1.458942657336592674e-03
-1.930791348918614858e+02 1.226782333105802536e-03
-1.930391298912363993e+02 -1.445111352950334549e-03
-1.929991248906113128e+02 1.213092124089598656e-03
-1.929591198899862547e+02 -1.431558746844530106e-03
-1.929191148893611683e+02 1.199677702970802784e-03
-1.928791098887360818e+02 -1.418279367499053478e-03
-1.928391048881110237e+02 1.186530455015599728e-03
-1.927990998874859372e+02 -1.405263785272836685e-03
-1.927590948868608507e+02 1.173642347566783428e-03
-1.927190898862357926e+02 -1.392519916407763958e-03
-1.926790848856107061e+02 1.161007094196975231e-03
-1.926390798849856196e+02 -1.379990717396140099e-03
-1.925990748843605331e+02 1.148616895079612732e-03
-1.925590698837354751e+02 -1.367719611153006554e-03
-1.925190648831103886e+02 1.136463484726846218e-03
-1.924790598824853021e+02 -1.355681335553526878e-03
-1.924390548818602440e+02 1.124544534832239151e-03
-1.923990498812351575e+02 -1.343875075690448284e-03
-1.923590448806100710e+02 1.112844794988632202e-03
-1.923190398799849845e+02 -1.332286396063864231e-03
-1.922790348793599264e+02 1.101369154639542103e-03
-1.922390298787348399e+02 -1.320900279097259045e-03
-1.921990248781097534e+02 1.090095378458499908e-03
-1.921590198774846954e+02 -1.309748506173491478e-03
-1.921190148768596089e+02 1.079034758731722832e-03
-1.920790098762345224e+02 -1.298789051361382008e-03
-1.920390048756094643e+02 1.068175886757671833e-03
-1.919989998749843778e+02 -1.288045314140617847e-03
-1.919589948743592913e+02 1.057490706443786621e-03
-1.919189898737342048e+02 -1.277446630410850048e-03
-1.918789848731091467e+02 1.047025085426867008e-03
-1.918389798724840603e+02 -1.267066108994185925e-03
-1.917989748718589738e+02 1.036734203808009624e-03
-1.917589698712339157e+02 -1.256865798495709896e-03
-1.917189648706088292e+02 1.026626676321029663e-03
-1.916789598699837427e+02 -1.246843021363019943e-03
-1.916389548693586562e+02 1.016687601804733276e-03
-1.915989498687335981e+02 -1.236991723999381065e-03
-1.915589448681085116e+02 1.006923499517142773e-03
-1.915189398674834251e+02 -1.227295608259737492e-03
-1.914789348668583671e+02 9.973292471840977669e-04
-1.914389298662332806e+02 -1.217796816490590572e-03
-1.913989248656081941e+02 9.878893615677952766e-04
-1.913589198649831360e+02 -1.208439352922141552e-03
-1.913189148643580495e+02 9.786119917407631874e-04
-1.912789098637329630e+02 -1.199239981360733509e-03
-1.912389048631078765e+02 9.694641339592635632e-04
-1.911988998624828184e+02 -1.190182985737919807e-03
-1.911588948618577319e+02 9.605073719285428524e-04
-1.911188898612326454e+02 -1.181285479106009007e-03
-1.910788848606075874e+02 9.516804129816591740e-04
-1.910388798599825009e+02 -1.172530231997370720e-03
-1.909988748593574144e+02 9.429987403564155102e-04
-1.909588698587323279e+02 -1.163914916105568409e-03
-1.909188648581072698e+02 9.344512945972383022e-04
-1.908788598574821833e+02 -1.155438716523349285e-03
-1.908388548568570968e+02 9.260385413654148579e-04
-1.907988498562320387e+02 -1.147110597230494022e-03
-1.907588448556069523e+02 9.177710744552314281e-04
-1.907188398549818658e+02 -1.138890045695006847e-03
-1.906788348543568077e+02 9.096241556107997894e-04
-1.906388298537317212e+02 -1.130807562731206417e-03
-1.905988248531066347e+02 9.016047115437686443e-04
-1.905588198524815482e+02 -1.122843823395669460e-03
-1.905188148518564901e+02 8.937139646150171757e-04
-1.904788098512314036e+02 -1.115019666031002998e-03
-1.904388048506063171e+02 8.859387598931789398e-04
-1.903987998499812591e+02 -1.107305171899497509e-03
-1.903587948493561726e+02 8.782865479588508606e-04
-1.903187898487310861e+02 -1.099704648368060589e-03
-1.902787848481059996e+02 8.707427768968045712e-04
-1.902387798474809415e+02 -1.092224731110036373e-03
-1.901987748468558550e+02 8.633170509710907936e-04
-1.901587698462307685e+02 -1.084854709915816784e-03
-1.901187648456057104e+02 8.559992420487105846e-04
-1.900787598449806239e+02 -1.077624619938433170e-03
-1.900387548443555374e+02 8.487896411679685116e-04
-1.899987498437304794e+02 -1.070435857400298119e-03
-1.899587448431053929e+02 8.416894706897437572e-04
-1.899187398424803064e+02 -1.063385978341102600e-03
-1.898787348418552199e+02 8.346901740878820419e-04
-1.898387298412301618e+02 -1.056434586644172668e-03
-1.897987248406050753e+02 8.278018212877213955e-04
-1.897587198399799888e+02 -1.049594138748943806e-03
-1.897187148393549307e+02 8.209976949729025364e-04
-1.896787098387298443e+02 -1.042842399328947067e-03
-1.896387048381047578e+02 8.142998558469116688e-04
-1.895986998374796713e+02 -1.036180416122078896e-03
-1.895586948368546132e+02 8.076883968897163868e-04
-1.895186898362295267e+02 -1.029628911055624485e-03
-1.894786848356044402e+02 8.011752506718039513e-04
-1.894386798349793821e+02 -1.023162272758781910e-03
-1.893986748343542956e+02 7.947562262415885925e-04
-1.893586698337292091e+02 -1.016797730699181557e-03
-1.893186648331041511e+02 7.883986108936369419e-04
-1.892786598324790646e+02 -1.010483247227966785e-03
-1.892386548318539781e+02 7.821638719178736210e-04
-1.891986498312288916e+02 -1.004282268695533276e-03
-1.891586448306038335e+02 7.760031730867922306e-04
-1.891186398299787470e+02 -9.981632465496659279e-04
-1.890786348293536605e+02 7.699325797148048878e-04
-1.890386298287286024e+02 -9.921266464516520500e-04
-1.889986248281035159e+02 7.639296818524599075e-04
-1.889586198274784294e+02 -9.861699072644114494e-04
-1.889186148268533429e+02 7.580093224532902241e-04
-1.888786098262282849e+02 -9.802983840927481651e-04
-1.888386048256031984e+02 7.521782536059617996e-04
-1.887985998249781119e+02 -9.744970011524856091e-04
-1.887585948243530538e+02 7.464174996130168438e-04
-1.887185898237279673e+02 -9.687746060080826283e-04
-1.886785848231028808e+02 7.407343364320695400e-04
-1.886385798224778227e+02 -9.631110588088631630e-04
-1.885985748218527362e+02 7.351206149905920029e-04
-1.885585698212276498e+02 -9.575518197380006313e-04
-1.885185648206025633e+02 7.295830873772501945e-04
-1.884785598199775052e+02 -9.520499152131378651e-04
-1.884385548193524187e+02 7.241172133944928646e-04
-1.883985498187273322e+02 -9.466183837503194809e-04
-1.883585448181022741e+02 7.187187438830733299e-04
-1.883185398174771876e+02 -9.412550134584307671e-04
-1.882785348168521011e+02 7.133902981877326965e-04
-1.882385298162270146e+02 -9.359601535834372044e-04
-1.881985248156019566e+02 7.081192452460527420e-04
-1.881585198149768701e+02 -9.307581349276006222e-04
-1.881185148143517836e+02 7.029397529549896717e-04
-1.880785098137267255e+02 -9.255734621547162533e-04
-1.880385048131016390e+02 6.978066521696746349e-04
-1.879984998124765525e+02 -9.204733069054782391e-04
-1.879584948118514944e+02 6.927375798113644123e-04
-1.879184898112264079e+02 -9.154216968454420567e-04
-1.878784848106013214e+02 6.877437117509543896e-04
-1.878384798099762349e+02 -9.104692726396024227e-04
-1.877984748093511769e+02 6.827956531196832657e-04
-1.877584698087260904e+02 -9.055541013367474079e-04
-1.877184648081010039e+02 6.779149407520890236e-04
-1.876784598074759458e+02 -9.006995242089033127e-04
-1.876384548068508593e+02 6.730870809406042099e-04
-1.875984498062257728e+02 -8.959062979556620121e-04
-1.875584448056006863e+02 6.683220854029059410e-04
-1.875184398049756282e+02 -8.911700570024549961e-04
-1.874784348043505418e+02 6.636141333729028702e-04
-1.874384298037254553e+02 -8.865134441293776035e-04
-1.873984248031003972e+02 6.589543772861361504e-04
-1.873584198024753107e+02 -8.818595088087022305e-04
-1.873184148018502242e+02 6.543589406646788120e-04
-1.872784098012251661e+02 -8.772888104431331158e-04
-1.872384048006000796e+02 6.498136208392679691e-04
-1.871983997999749931e+02 -8.727682870812714100e-04
-1.871583947993499066e+02 6.453379173763096333e-04
-1.871183897987248486e+02 -8.683121413923799992e-04
-1.870783847980997621e+02 6.408892804756760597e-04
-1.870383797974746756e+02 -8.638965082354843616e-04
-1.869983747968496175e+02 6.364997825585305691e-04
-1.869583697962245310e+02 -8.595348335802555084e-04
-1.869183647955994445e+02 6.321629625745117664e-04
-1.868783597949743580e+02 -8.552224026061594486e-04
-1.868383547943492999e+02 6.278762011788785458e-04
-1.867983497937242134e+02 -8.509599720127880573e-04
-1.867583447930991269e+02 6.236450863070785999e-04
-1.867183397924740689e+02 -8.467274601571261883e-04
-1.866783347918489824e+02 6.194394081830978394e-04
-1.866383297912238959e+02 -8.425716659985482693e-04
-1.865983247905988378e+02 6.152970017865300179e-04
-1.865583197899737513e+02 -8.384513203054666519e-04
-1.865183147893486648e+02 6.111993570812046528e-04
-1.864783097887235783e+02 -8.343794033862650394e-04
-1.864383047880985202e+02 6.071455427445471287e-04
-1.863982997874734338e+02 -8.303447393700480461e-04
-1.863582947868483473e+02 6.031372467987239361e-04
-1.863182897862232892e+02 -8.263590279966592789e-04
-1.862782847855982027e+02 5.991616635583341122e-04
-1.862382797849731162e+02 -8.224258199334144592e-04
-1.861982747843480297e+02 5.952560459263622761e-04
-1.861582697837229716e+02 -8.185192709788680077e-04
-1.861182647830978851e+02 5.913761560805141926e-04
-1.860782597824727986e+02 -8.146612090058624744e-04
-1.860382547818477406e+02 5.875417264178395271e-04
-1.859982497812226541e+02 -8.108124020509421825e-04
-1.859582447805975676e+02 5.837423377670347691e-04
-1.859182397799725095e+02 -8.070688345469534397e-04
-1.858782347793474230e+02 5.799876525998115540e-04
-1.858382297787223365e+02 -8.033336489461362362e-04
-1.857982247780972500e+02 5.762734217569231987e-04
-1.857582197774721919e+02 -7.996399071998894215e-04
-1.857182147768471054e+02 5.725940573029220104e-04
-1.856782097762220189e+02 -7.959803915582597256e-04
-1.856382047755969609e+02 5.689576501026749611e-04
-1.855981997749718744e+02 -7.923627272248268127e-04
-1.855581947743467879e+02 5.653516855090856552e-04
-1.855181897737217014e+02 -7.888010004535317421e-04
-1.854781847730966433e+02 5.617995630018413067e-04
-1.854381797724715568e+02 -7.852397975511848927e-04
-1.853981747718464703e+02 5.582721205428242683e-04
-1.853581697712214122e+02 -7.817307487130165100e-04
-1.853181647705963258e+02 5.547783803194761276e-04
-1.852781597699712393e+02 -7.782443426549434662e-04
-1.852381547693461812e+02 5.513427895493805408e-04
-1.851981497687210947e+02 -7.748320349492132664e-04
-1.851581447680960082e+02 5.479173851199448109e-04
-1.851181397674709217e+02 -7.714284583926200867e-04
-1.850781347668458636e+02 5.445333081297576427e-04
-1.850381297662207771e+02 -7.680629496462643147e-04
-1.849981247655956906e+02 5.411807796917855740e-04
-1.849581197649706326e+02 -7.647296879440546036e-04
-1.849181147643455461e+02 5.378677160479128361e-04
-1.848781097637204596e+02 -7.614314672537147999e-04
-1.848381047630953731e+02 5.345974350348114967e-04
-1.847980997624703150e+02 -7.581574609503149986e-04
-1.847580947618452285e+02 5.313313449732959270e-04
-1.847180897612201420e+02 -7.549279835075139999e-04
-1.846780847605950839e+02 5.281145568005740643e-04
-1.846380797599699974e+02 -7.517262129113078117e-04
-1.845980747593449109e+02 5.249269306659698486e-04
-1.845580697587198529e+02 -7.485660607926547527e-04
-1.845180647580947664e+02 5.217760335654020309e-04
-1.844780597574696799e+02 -7.454181904904544353e-04
-1.844380547568445934e+02 5.186510970816016197e-04
-1.843980497562195353e+02 -7.423099013976752758e-04
-1.843580447555944488e+02 5.155517719686031342e-04
-1.843180397549693623e+02 -7.392313564196228981e-04
-1.842780347543443042e+02 5.124940653331577778e-04
-1.842380297537192178e+02 -7.361820898950099945e-04
-1.841980247530941313e+02 5.094603984616696835e-04
-1.841580197524690448e+02 -7.331637316383421421e-04
-1.841180147518439867e+02 5.064703873358666897e-04
-1.840780097512189002e+02 -7.301379810087382793e-04
-1.840380047505938137e+02 5.034670466557145119e-04
-1.839979997499687556e+02 -7.272009388543665409e-04
-1.839579947493436691e+02 5.005223792977631092e-04
-1.839179897487185826e+02 -7.242679712362587452e-04
-1.838779847480935246e+02 4.976030322723090649e-04
-1.838379797474684381e+02 -7.213700446300208569e-04
-1.837979747468433516e+02 4.947060951963067055e-04
-1.837579697462182935e+02 -7.184791611507534981e-04
-1.837179647455932070e+02 4.918402410112321377e-04
-1.836779597449681205e+02 -7.156278588809072971e-04
-1.836379547443430340e+02 4.889920237474143505e-04
-1.835979497437179759e+02 -7.128060678951442242e-04
-1.835579447430928894e+02 4.861891211476176977e-04
-1.835179397424678029e+02 -7.099999347701668739e-04
-1.834779347418427164e+02 4.834000428672879934e-04
-1.834379297412176584e+02 -7.072240114212036133e-04
-1.833979247405925719e+02 4.806348879355937243e-04
-1.833579197399674854e+02 -7.044434314593672752e-04
-1.833179147393424273e+02 4.779014270752668381e-04
-1.832779097387173408e+02 -7.017503958195447922e-04
-1.832379047380922543e+02 4.751885426230728626e-04
-1.831978997374671962e+02 -6.990499678067862988e-04
-1.831578947368421098e+02 4.725013568531721830e-04
-1.831178897362170233e+02 -6.963774212636053562e-04
-1.830778847355919652e+02 4.698304983321577311e-04
-1.830378797349668787e+02 -6.937194848433136940e-04
-1.829978747343417922e+02 4.671941569540649652e-04
-1.829578697337167057e+02 -6.910916417837142944e-04
-1.829178647330916476e+02 4.645858134608715773e-04
-1.828778597324665611e+02 -6.884870817884802818e-04
-1.828378547318414746e+02 4.619846004061400890e-04
-1.827978497312163881e+02 -6.859050481580197811e-04
-1.827578447305913301e+02 4.594134807121008635e-04
-1.827178397299662436e+02 -6.833444931544363499e-04
-1.826778347293411571e+02 4.568563599605113268e-04
-1.826378297287160990e+02 -6.808220059610903263e-04
-1.825978247280910125e+02 4.543459799606353045e-04
-1.825578197274659260e+02 -6.782988784834742546e-04
-1.825178147268408679e+02 4.518408968579024076e-04
-1.824778097262157814e+02 -6.758057861588895321e-04
-1.824378047255906949e+02 4.493577871471643448e-04
-1.823977997249656369e+02 -6.733336485922336578e-04
-1.823577947243405504e+02 4.468985134735703468e-04
-1.823177897237154639e+02 -6.708854343742132187e-04
-1.822777847230903774e+02 4.444605729077011347e-04
-1.822377797224653193e+02 -6.684567197225987911e-04
-1.821977747218402328e+02 4.420670738909393549e-04
-1.821577697212151463e+02 -6.660335930064320564e-04
-1.821177647205900598e+02 4.396368458401411772e-04
-1.820777597199650018e+02 -6.636561593040823936e-04
-1.820377547193399153e+02 4.372619150672107935e-04
-1.819977497187148288e+02 -6.612895522266626358e-04
-1.819577447180897707e+02 4.349025548435747623e-04
-1.819177397174646842e+02 -6.589663680642843246e-04
-1.818777347168395977e+02 4.325725021772086620e-04
-1.818377297162145396e+02 -6.566189113073050976e-04
-1.817977247155894531e+02 4.302531888242810965e-04
-1.817577197149643666e+02 -6.543126073665916920e-04
-1.817177147143393086e+02 4.279513668734580278e-04
-1.816777097137142221e+02 -6.520225433632731438e-04
-1.816377047130891356e+02 4.256769607309252024e-04
-1.815976997124640491e+02 -6.497534341178834438e-04
-1.815576947118389910e+02 4.234176885802298784e-04
-1.815176897112139045e+02 -6.475042318925261497e-04
-1.814776847105888180e+02 4.211848427075892687e-04
-1.814376797099637315e+02 -6.452408269979059696e-04
-1.813976747093386734e+02 4.189443134237080812e-04
-1.813576697087135869e+02 -6.430510547943413258e-04
-1.813176647080885004e+02 4.167433071415871382e-04
-1.812776597074634424e+02 -6.408573826774954796e-04
-1.812376547068383559e+02 4.145599668845534325e-04
-1.811976497062132694e+02 -6.386923487298190594e-04
-1.811576447055882113e+02 4.123825347051024437e-04
-1.811176397049631248e+02 -6.365156732499599457e-04
-1.810776347043380383e+02 4.102334205526858568e-04
-1.810376297037129802e+02 -6.343738641589879990e-04
-1.809976247030878937e+02 4.081014485564082861e-04
-1.809576197024628073e+02 -6.322482367977499962e-04
-1.809176147018377208e+02 4.059835919179022312e-04
-1.808776097012126627e+02 -6.301394314505159855e-04
-1.808376047005875762e+02 4.038821789436042309e-04
-1.807975996999624897e+02 -6.280468660406768322e-04
-1.807575946993374032e+02 4.017797473352402449e-04
-1.807175896987123451e+02 -6.259780493564903736e-04
-1.806775846980872586e+02 3.997350286226719618e-04
-1.806375796974621721e+02 -6.239155773073434830e-04
-1.805975746968371141e+02 3.976832958869636059e-04
-1.805575696962120276e+02 -6.218724884092807770e-04
-1.805175646955869411e+02 3.956491709686815739e-04
-1.804775596949618830e+02 -6.198414484970271587e-04
-1.804375546943367965e+02 3.936277935281395912e-04
-1.803975496937117100e+02 -6.178332841955125332e-04
-1.803575446930866519e+02 3.916252171620726585e-04
-1.803175396924615654e+02 -6.158342002891004086e-04
-1.802775346918364789e+02 3.896554408129304647e-04
-1.802375296912113924e+02 -6.138566532172262669e-04
-1.801975246905863344e+02 3.876639821100980043e-04
-1.801575196899612479e+02 -6.118919118307530880e-04
-1.801175146893361614e+02 3.857055853586643934e-04
-1.800775096887110749e+02 -6.099395104683935642e-04
-1.800375046880860168e+02 3.837456461042165756e-04
-1.799974996874609303e+02 -6.080361199565231800e-04
-1.799574946868358438e+02 3.818483673967421055e-04
-1.799174896862107857e+02 -6.060960004106163979e-04
-1.798774846855856993e+02 3.799316473305225372e-04
-1.798374796849606128e+02 -6.041897577233612537e-04
-1.797974746843355547e+02 3.780323313549160957e-04
-1.797574696837104682e+02 -6.022948655299842358e-04
-1.797174646830853817e+02 3.761494881473481655e-04
-1.796774596824603236e+02 -6.004219176247715950e-04
-1.796374546818352371e+02 3.742811386473476887e-04
-1.795974496812101506e+02 -5.985589814372360706e-04
-1.795574446805850641e+02 3.724427660927176476e-04
-1.795174396799600061e+02 -5.966976750642061234e-04
-1.794774346793349196e+02 3.705772978719323874e-04
-1.794374296787098331e+02 -5.948718753643333912e-04
-1.793974246780847466e+02 3.687514108605682850e-04
-1.793574196774596885e+02 -5.930512561462819576e-04
-1.793174146768346020e+02 3.669389407150447369e-04
-1.792774096762095155e+02 -5.912726628594100475e-04
-1.792374046755844574e+02 3.651404695119708776e-04
-1.791973996749593709e+02 -5.894529167562723160e-04
-1.791573946743342844e+02 3.633511078078299761e-04
-1.791173896737092264e+02 -5.876722862012684345e-04
-1.790773846730841399e+02 3.615767054725438356e-04
-1.790373796724590534e+02 -5.859018419869244099e-04
-1.789973746718339953e+02 3.598174953367561102e-04
-1.789573696712089088e+02 -5.841496749781072140e-04
-1.789173646705838223e+02 3.580683842301368713e-04
-1.788773596699587358e+02 -5.824106046929955482e-04
-1.788373546693336777e+02 3.563143254723399878e-04
-1.787973496687085913e+02 -5.806757253594696522e-04
-1.787573446680835048e+02 3.546077059581875801e-04
-1.787173396674584183e+02 -5.789598799310624599e-04
-1.786773346668333602e+02 3.528976812958717346e-04
-1.786373296662082737e+02 -5.772564327344298363e-04
-1.785973246655831872e+02 3.512061375658959150e-04
-1.785573196649581291e+02 -5.755566526204347610e-04
-1.785173146643330426e+02 3.495093551464378834e-04
-1.784773096637079561e+02 -5.738800973631441593e-04
-1.784373046630828981e+02 3.478357975836843252e-04
-1.783972996624578116e+02 -5.722086643800139427e-04
-1.783572946618327251e+02 3.461792366579174995e-04
-1.783172896612076670e+02 -5.705565563403069973e-04
-1.782772846605825805e+02 3.445232287049293518e-04
-1.782372796599574940e+02 -5.689103272743523121e-04
-1.781972746593324075e+02 3.428824420552700758e-04
-1.781572696587073494e+02 -5.672762054018676281e-04
-1.781172646580822629e+02 3.412184014450758696e-04
-1.780772596574571764e+02 -5.656695575453341007e-04
-1.780372546568320899e+02 3.396472602616995573e-04
-1.779972496562070319e+02 -5.640503950417041779e-04
-1.779572446555819454e+02 3.380400885362178087e-04
-1.779172396549568589e+02 -5.624505574814975262e-04
-1.778772346543318008e+02 3.364479925949126482e-04
-1.778372296537067143e+02 -5.608505452983081341e-04
-1.777972246530816278e+02 3.348594764247536659e-04
-1.777572196524565697e+02 -5.592816160060465336e-04
-1.777172146518314833e+02 3.332894993945956230e-04
-1.776772096512063968e+02 -5.577111151069402695e-04
-1.776372046505813387e+02 3.317402442917227745e-04
-1.775971996499562522e+02 -5.561581929214298725e-04
-1.775571946493311657e+02 3.301760880276560783e-04
-1.775171896487060792e+02 -5.546131869778037071e-04
-1.774771846480810211e+02 3.286347491666674614e-04
-1.774371796474559346e+02 -5.530745838768780231e-04
-1.773971746468308481e+02 3.270942834205925465e-04
-1.773571696462057616e+02 -5.515863886103034019e-04
-1.773171646455807036e+02 3.255997144151479006e-04
-1.772771596449556171e+02 -5.500496481545269489e-04
-1.772371546443305306e+02 3.240862861275672913e-04
-1.771971496437054725e+02 -5.485443980433046818e-04
-1.771571446430803860e+02 3.225863620173186064e-04
-1.771171396424552995e+02 -5.470428732223808765e-04
-1.770771346418302414e+02 3.210998838767409325e-04
-1.770371296412051549e+02 -5.455678910948336124e-04
-1.769971246405800684e+02 3.196217294316738844e-04
-1.769571196399550104e+02 -5.440984969027340412e-04
-1.769171146393299239e+02 3.181449428666383028e-04
-1.768771096387048374e+02 -5.426279967650771141e-04
-1.768371046380797509e+02 3.166918468195945024e-04
-1.767970996374546928e+02 -5.411753081716597080e-04
-1.767570946368296063e+02 3.152436693198978901e-04