 -0.88888888888888884          0.0000000000000000     
 -0.87888888888888883          0.0000000000000000     
 -0.86888888888888882          0.0000000000000000     
 -0.85888888888888881          0.0000000000000000     
 -0.84888888888888880          0.0000000000000000     
 -0.83888888888888880          0.0000000000000000     
 -0.82888888888888879          0.0000000000000000     
 -0.81888888888888878          0.0000000000000000     
 -0.80888888888888888          0.0000000000000000     
 -0.79888888888888887          0.0000000000000000     
 -0.78888888888888886          0.0000000000000000     
 -0.77888888888888885          0.0000000000000000     
 -0.76888888888888884          0.0000000000000000     
 -0.75888888888888884          0.0000000000000000     
 -0.74888888888888883          0.0000000000000000     
 -0.73888888888888882          0.0000000000000000     
 -0.72888888888888881          0.0000000000000000     
 -0.71888888888888880          0.0000000000000000     
 -0.70888888888888890          0.0000000000000000     
 -0.69888888888888889          0.0000000000000000     
 -0.68888888888888888          0.0000000000000000     
 -0.67888888888888888          0.0000000000000000     
 -0.66888888888888887          0.0000000000000000     
 -0.65888888888888886          0.0000000000000000     
 -0.64888888888888885          0.0000000000000000     
 -0.63888888888888884          0.0000000000000000     
 -0.62888888888888883          0.0000000000000000     
 -0.61888888888888882          0.0000000000000000     
 -0.60888888888888881          0.0000000000000000     
 -0.59888888888888880          0.0000000000000000     
 -0.58888888888888880          0.0000000000000000     
 -0.57888888888888879          0.0000000000000000     
 -0.56888888888888878          0.0000000000000000     
 -0.55888888888888877          0.0000000000000000     
 -0.54888888888888876          0.0000000000000000     
 -0.53888888888888875          0.0000000000000000     
 -0.52888888888888885          0.0000000000000000     
 -0.51888888888888884          0.0000000000000000     
 -0.50888888888888884          0.0000000000000000     
 -0.49888888888888883          0.0000000000000000     
 -0.48888888888888882          0.0000000000000000     
 -0.47888888888888881          0.0000000000000000     
 -0.46888888888888886          0.0000000000000000     
 -0.45888888888888885          0.0000000000000000     
 -0.44888888888888884          0.0000000000000000     
 -0.43888888888888883          0.0000000000000000     
 -0.42888888888888882          0.0000000000000000     
 -0.41888888888888881          0.0000000000000000     
 -0.40888888888888886          0.0000000000000000     
 -0.39888888888888885          0.0000000000000000     
 -0.38888888888888884          0.0000000000000000     
 -0.37888888888888883          0.0000000000000000     
 -0.36888888888888882          0.0000000000000000     
 -0.35888888888888881          0.0000000000000000     
 -0.34888888888888880          0.0000000000000000     
 -0.33888888888888880          0.0000000000000000     
 -0.32888888888888879          0.0000000000000000     
 -0.31888888888888878          0.0000000000000000     
 -0.30888888888888888          0.0000000000000000     
 -0.29888888888888887          0.0000000000000000     
 -0.28888888888888886          0.0000000000000000     
 -0.27888888888888885          0.0000000000000000     
 -0.26888888888888884          0.0000000000000000     
 -0.25888888888888884          0.0000000000000000     
 -0.24888888888888883          0.0000000000000000     
 -0.23888888888888882          0.0000000000000000     
 -0.22888888888888881          0.0000000000000000     
 -0.21888888888888880          0.0000000000000000     
 -0.20888888888888879          0.0000000000000000     
 -0.19888888888888878          0.0000000000000000     
 -0.18888888888888877          0.0000000000000000     
 -0.17888888888888888          0.0000000000000000     
 -0.16888888888888887          0.0000000000000000     
 -0.15888888888888886          0.0000000000000000     
 -0.14888888888888885          0.0000000000000000     
 -0.13888888888888884          0.0000000000000000     
 -0.12888888888888883          0.0000000000000000     
 -0.11888888888888882          0.0000000000000000     
 -0.10888888888888881          0.0000000000000000     
  -9.8888888888888804E-002     0.0000000000000000     
  -8.8888888888888795E-002     0.0000000000000000     
  -7.8888888888888786E-002     0.0000000000000000     
  -6.8888888888888777E-002     0.0000000000000000     
  -5.8888888888888768E-002     0.0000000000000000     
  -4.8888888888888871E-002     0.0000000000000000     
  -3.8888888888888862E-002     0.0000000000000000     
  -2.8888888888888853E-002     0.0000000000000000     
  -1.8888888888888844E-002     0.0000000000000000     
  -8.8888888888888351E-003     0.0000000000000000     
   1.1111111111111738E-003     0.0000000000000000     
   1.1111111111111183E-002     0.0000000000000000     
   2.1111111111111192E-002     0.0000000000000000     
   3.1111111111111200E-002     0.0000000000000000     
   4.1111111111111209E-002     0.0000000000000000     
   5.1111111111111218E-002     0.0000000000000000     
   6.1111111111111227E-002     0.0000000000000000     
   7.1111111111111125E-002     0.0000000000000000     
   8.1111111111111134E-002     0.0000000000000000     
   9.1111111111111143E-002     0.0000000000000000     
  0.10111111111111115          0.0000000000000000     
  0.11111111111111116          0.0000000000000000     
  0.12111111111111117          0.0000000000000000     
  0.13111111111111118          0.0000000000000000     
  0.14111111111111119          0.0000000000000000     
  0.15111111111111120          0.0000000000000000     
  0.16111111111111120          0.0000000000000000     
  0.17111111111111121          0.0000000000000000     
  0.18111111111111122          0.0000000000000000     
  0.19111111111111123          0.0000000000000000     
  0.20111111111111124          0.0000000000000000     
  0.21111111111111125          0.0000000000000000     
  0.22111111111111126          0.0000000000000000     
  0.23111111111111127          0.0000000000000000     
  0.24111111111111128          0.0000000000000000     
  0.25111111111111128          0.0000000000000000     
  0.26111111111111129          0.0000000000000000     
  0.27111111111111108          0.0000000000000000     
  0.28111111111111109          0.0000000000000000     
  0.29111111111111110          0.0000000000000000     
  0.30111111111111111          0.0000000000000000     
  0.31111111111111112          0.0000000000000000     
  0.32111111111111112          0.0000000000000000     
  0.33111111111111113          0.0000000000000000     
  0.34111111111111114          0.0000000000000000     
  0.35111111111111115          0.0000000000000000     
  0.36111111111111116          0.0000000000000000     
  0.37111111111111117          0.0000000000000000     
  0.38111111111111118          0.0000000000000000     
  0.39111111111111119          0.0000000000000000     
  0.40111111111111120          0.0000000000000000     
  0.41111111111111120          0.0000000000000000     
  0.42111111111111121          0.0000000000000000     
  0.43111111111111122          0.0000000000000000     
  0.44111111111111123          0.0000000000000000     
  0.45111111111111124          0.0000000000000000     
  0.46111111111111125          0.0000000000000000     
  0.47111111111111126          0.0000000000000000     
  0.48111111111111127          0.0000000000000000     
  0.49111111111111128          0.0000000000000000     
  0.50111111111111128          0.0000000000000000     
  0.51111111111111129          0.0000000000000000     
  0.52111111111111108          0.0000000000000000     
  0.53111111111111109          0.0000000000000000     
  0.54111111111111110          0.0000000000000000     
  0.55111111111111111          0.0000000000000000     
  0.56111111111111112          0.0000000000000000     
  0.57111111111111112          0.0000000000000000     
  0.58111111111111113          0.0000000000000000     
  0.59111111111111114          0.0000000000000000     
  0.60111111111111115          0.0000000000000000     
  0.61111111111111116          0.0000000000000000     
  0.62111111111111117          0.0000000000000000     
  0.63111111111111118          0.0000000000000000     
  0.64111111111111119          0.0000000000000000     
  0.65111111111111120          0.0000000000000000     
  0.66111111111111120          0.0000000000000000     
  0.67111111111111121          0.0000000000000000     
  0.68111111111111122          0.0000000000000000     
  0.69111111111111123          0.0000000000000000     
  0.70111111111111124          0.0000000000000000     
  0.71111111111111125          0.0000000000000000     
  0.72111111111111126          0.0000000000000000     
  0.73111111111111127          0.0000000000000000     
  0.74111111111111128          0.0000000000000000     
  0.75111111111111128          0.0000000000000000     
  0.76111111111111129          0.0000000000000000     
  0.77111111111111130          0.0000000000000000     
  0.78111111111111109          0.0000000000000000     
  0.79111111111111110          0.0000000000000000     
  0.80111111111111111          0.0000000000000000     
  0.81111111111111112          0.0000000000000000     
  0.82111111111111112          0.0000000000000000     
  0.83111111111111113          0.0000000000000000     
  0.84111111111111114          0.0000000000000000     
  0.85111111111111115          0.0000000000000000     
  0.86111111111111116          0.0000000000000000     
  0.87111111111111117          0.0000000000000000     
  0.88111111111111118          0.0000000000000000     
  0.89111111111111119          0.0000000000000000     
  0.90111111111111120          0.0000000000000000     
  0.91111111111111120          0.0000000000000000     
  0.92111111111111121          0.0000000000000000     
  0.93111111111111122          0.0000000000000000     
  0.94111111111111123          0.0000000000000000     
  0.95111111111111124          0.0000000000000000     
  0.96111111111111125          0.0000000000000000     
  0.97111111111111126          0.0000000000000000     
  0.98111111111111127          0.0000000000000000     
  0.99111111111111128          0.0000000000000000     
   1.0011111111111113          0.0000000000000000     
   1.0111111111111113          0.0000000000000000     
   1.0211111111111113          0.0000000000000000     
   1.0311111111111111          0.0000000000000000     
   1.0411111111111111          0.0000000000000000     
   1.0511111111111111          0.0000000000000000     
   1.0611111111111111          0.0000000000000000     
   1.0711111111111111          0.0000000000000000     
   1.0811111111111111          0.0000000000000000     
   1.0911111111111111          0.0000000000000000     
   1.1011111111111112          0.0000000000000000     
   1.1111111111111112          0.0000000000000000     
   1.1211111111111114          0.0000000000000000     
   1.1311111111111112          0.0000000000000000     
   1.1411111111111114          0.0000000000000000     
   1.1511111111111112          0.0000000000000000     
   1.1611111111111110          0.0000000000000000     
   1.1711111111111112          0.0000000000000000     
   1.1811111111111110          0.0000000000000000     
   1.1911111111111112          0.0000000000000000     
   1.2011111111111110          0.0000000000000000     
   1.2111111111111112          8.3465691770813226E-038
   1.2211111111111110          1.6693138354162645E-037
   1.2311111111111113         -8.1708596900163709E-037
   1.2411111111111111         -3.4182200783596529E-037
   1.2511111111111113          1.6117642563069278E-036
   1.2611111111111111          1.0579128988727459E-036
   1.2711111111111113         -1.9063554881924374E-036
   1.2811111111111111         -1.8565558967387323E-036
   1.2911111111111113          1.3526169521002152E-036
   1.3011111111111111          2.6675783015501956E-036
   1.3111111111111113         -2.3363676655716870E-036
   1.3211111111111111         -2.8738298845826344E-036
   1.3311111111111114          1.8755525713443824E-036
   1.3411111111111111          2.6690883856169029E-036
   1.3511111111111114          2.3731477817829625E-036
   1.3611111111111112          7.9879382690645374E-036
   1.3711111111111114          3.3537641605325343E-036
   1.3811111111111112         -1.9163219712862241E-035
   1.3911111111111114         -3.5391741440640459E-035
   1.4011111111111112         -2.0284363234184900E-035
   1.4111111111111114          2.6906830361863256E-035
   1.4211111111111112          8.3928396801884560E-035
   1.4311111111111110          9.8426805223738715E-035
   1.4411111111111112          4.9194269977681505E-036
   1.4511111111111110         -1.8634660801710848E-034
   1.4611111111111112         -3.2110864387042230E-034
   1.4711111111111110         -1.8607030944748014E-034
   1.4811111111111113          2.8094223149156513E-034
   1.4911111111111111          8.1345577425795050E-034
   1.5011111111111113          8.5311585162874058E-034
   1.5111111111111111         -5.9475973389776796E-035
   1.5211111111111113         -1.6602696904693374E-033
   1.5311111111111111         -2.6663319589839467E-033
   1.5411111111111113         -1.4458712758228604E-033
   1.5511111111111111          2.3965716175045786E-033
   1.5611111111111113          6.6267531591606723E-033
   1.5711111111111111          6.8348450466149877E-033
   1.5811111111111114         -3.8400356094666495E-034
   1.5911111111111111         -1.2930069047692592E-032
   1.6011111111111114         -2.1289207741061580E-032
   1.6111111111111112         -1.3181429412832737E-032
   1.6211111111111114          1.5449232787373435E-032
   1.6311111111111112          5.0103630565027985E-032
   1.6411111111111114          5.9159791858028494E-032
   1.6511111111111112          1.3808117777350746E-032
   1.6611111111111114         -8.0746699420907573E-032
   1.6711111111111112         -1.6607969584603987E-031
   1.6811111111111110         -1.5029670935574128E-031
   1.6911111111111112          2.6172228906792624E-032
   1.7011111111111110          3.1068466155509964E-031
   1.7111111111111112          5.0992841495167960E-031
   1.7211111111111110          3.7286899450032213E-031
   1.7311111111111113         -2.1771044050957986E-031
   1.7411111111111111         -1.0463365798872704E-030
   1.7511111111111113         -1.5297259999397573E-030
   1.7611111111111111         -9.8182733070510462E-031
   1.7711111111111113          8.5515248595766841E-031
   1.7811111111111111          3.2930682425291671E-030
   1.7911111111111113          4.6375020083442879E-030
   1.8011111111111111          2.9336007534940386E-030
   1.8111111111111113         -2.5679191311227232E-030
   1.8211111111111111         -9.9486243458114699E-030
   1.8311111111111114         -1.4355103910320856E-029
   1.8411111111111111         -9.9421890314582323E-030
   1.8511111111111114          6.0463163772398205E-030
   1.8611111111111112          2.8875073442412335E-029
   1.8711111111111114          4.4875395484562142E-029
   1.8811111111111112          3.6118583231953334E-029
   1.8911111111111114         -8.3130200650603801E-030
   1.9011111111111112         -7.8792117177877236E-029
   1.9111111111111114         -1.3833977660951605E-028
   1.9211111111111112         -1.3234979744473148E-028
   1.9311111111111110         -1.8508110029290115E-029
   1.9411111111111112          1.9233841057419990E-028
   1.9511111111111110          4.0790228442324601E-028
   1.9611111111111112          4.6821066210879347E-028
   1.9711111111111110          2.1878265649097619E-028
   1.9811111111111113         -3.7170671816029687E-028
   1.9911111111111111         -1.1058895815175558E-027
   2.0011111111111113         -1.5478960889512651E-027
   2.0111111111111111         -1.1773570861903745E-027
   2.0211111111111113          2.9725797023006388E-028
   2.0311111111111111          2.5838048874165719E-027
   2.0411111111111113          4.6289106063905121E-027
   2.0511111111111111          4.8496310372950335E-027
   2.0611111111111113          1.8716133273516715E-027
   2.0711111111111111         -4.4082776127054659E-027
   2.0811111111111114         -1.1941356530507800E-026
   2.0911111111111111         -1.6519645609054049E-026
   2.1011111111111114         -1.3177630221109411E-026
   2.1111111111111112          1.0506183773050559E-027
   2.1211111111111114          2.3971040830497066E-026
   2.1311111111111112          4.6432845919374518E-026
   2.1411111111111114          5.3836872508649341E-026
   2.1511111111111112          3.1958206651309278E-026
   2.1611111111111114         -2.3989369520591810E-026
   2.1711111111111112         -1.0071432782977741E-025
   2.1811111111111114         -1.6412193201150423E-025
   2.1911111111111112         -1.6752850457118473E-025
   2.2011111111111110         -7.2143024600812590E-026
   2.2111111111111112          1.2534340345548919E-025
   2.2211111111111110          3.7019622651976052E-025
   2.2311111111111113          5.4794697559007379E-025
   2.2411111111111111          5.1604159488602312E-025
   2.2511111111111113          1.6909218712270415E-025
   2.2611111111111111         -4.8072029855094574E-025
   2.2711111111111113         -1.2447114762663468E-024
   2.2811111111111111         -1.7642083312210445E-024
   2.2911111111111113         -1.6136348017598233E-024
   2.3011111111111111         -4.9511927804633171E-025
   2.3111111111111113          1.5320762477060597E-024
   2.3211111111111111          3.8912765071951974E-024
   2.3311111111111114          5.5171570926096059E-024
   2.3411111111111111          5.1547390099634213E-024
   2.3511111111111114          1.9102651389618096E-024
   2.3611111111111112         -4.1024025067031177E-024
   2.3711111111111114         -1.1300656503788077E-023
   2.3811111111111112         -1.6680301335551819E-023
   2.3911111111111114         -1.6595049137524584E-023
   2.4011111111111112         -8.2369211185795932E-024
   2.4111111111111114          8.5713941980887761E-024
   2.4211111111111112          2.9993122705227046E-023
   2.4311111111111114          4.8059476317079339E-023
   2.4411111111111112          5.2462882112804923E-023
   2.4511111111111110          3.4297936665018107E-023
   2.4611111111111112         -9.1068264377593908E-024
   2.4711111111111110         -7.0008981957663959E-023
   2.4811111111111113         -1.2893497306795204E-022
   2.4911111111111111         -1.5809907238155146E-022
   2.5011111111111113         -1.3010799030135396E-022
   2.5111111111111111         -3.0375461497882324E-023
   2.5211111111111113          1.3063859707886734E-022
   2.5311111111111111          3.1080592075534453E-022
   2.5411111111111113          4.4059166453235933E-022
   2.5511111111111111          4.4095244533419673E-022
   2.5611111111111113          2.5293301477731581E-022
   2.5711111111111111         -1.2870720052562215E-022
   2.5811111111111114         -6.3027123708705977E-022
   2.5911111111111111         -1.0961959642111287E-021
   2.6011111111111114         -1.3186187926697249E-021
   2.6111111111111112         -1.1003837680105702E-021
   2.6211111111111114         -3.3929233175337393E-022
   2.6311111111111112          8.9178622547606427E-022
   2.6411111111111114          2.3023808985492761E-021
   2.6511111111111112          3.4107726271115727E-021
   2.6611111111111114          3.6554718777916516E-021
   2.6711111111111112          2.5812150819878055E-021
   2.6811111111111114          5.6374865429901266E-023
   2.6911111111111112         -3.5490939468572747E-021
   2.7011111111111110         -7.3071705518320970E-021
   2.7111111111111112         -9.8632006498864337E-021
   2.7211111111111110         -9.7760453785678948E-021
   2.7311111111111113         -6.0185031290376075E-021
   2.7411111111111111          1.4863721720013119E-021
   2.7511111111111113          1.1474907143483456E-020
   2.7611111111111111          2.1292548236194117E-020
   2.7711111111111113          2.7325148978562072E-020
   2.7811111111111111          2.5932249528443798E-020
   2.7911111111111113          1.4732833110825281E-020
   2.8011111111111111         -6.0829089140270208E-021
   2.8111111111111113         -3.2865918145346226E-020
   2.8211111111111111         -5.8506155146100333E-020
   2.8311111111111114         -7.3633207673466756E-020
   2.8411111111111111         -6.9033211050619620E-020
   2.8511111111111114         -3.8882943012156322E-020
   2.8611111111111112          1.6017491454147016E-020
   2.8711111111111114          8.6117909282214958E-020
   2.8811111111111112          1.5321213789117639E-019
   2.8911111111111114          1.9350239946862098E-019
   2.9011111111111112          1.8363907199514453E-019
   2.9111111111111114          1.0873737638997917E-019
   2.9211111111111112         -2.9639474316689000E-020
   2.9311111111111114         -2.0822381037840964E-019
   2.9411111111111112         -3.8221428581721766E-019
   2.9511111111111110         -4.9267632085967283E-019
   2.9611111111111112         -4.8116656792509201E-019
   2.9711111111111110         -3.0915875394169409E-019
   2.9811111111111113          2.2563960380605066E-020
   2.9911111111111111          4.6097788090723997E-019
   3.0011111111111113          9.0074385237889981E-019
   3.0111111111111111          1.2012066633359771E-018
   3.0211111111111113          1.2204068695218282E-018
   3.0311111111111111          8.6040189201317066E-019
   3.0411111111111113          1.1270099324078600E-019
   3.0511111111111111         -9.1091507198600498E-019
   3.0611111111111113         -1.9766549867896321E-018
   3.0711111111111111         -2.7654360141515700E-018
   3.0811111111111114         -2.9477517910370857E-018
   3.0911111111111111         -2.2839726434829363E-018
   3.1011111111111114         -7.2550863813926140E-019
   3.1111111111111112          1.5150055903213639E-018
   3.1211111111111109          3.9553282942738936E-018
   3.1311111111111116          5.9166674116366470E-018
   3.1411111111111114          6.6773683455394004E-018
   3.1511111111111112          5.6808105084472583E-018
   3.1611111111111110          2.7472500347942854E-018
   3.1711111111111117         -1.7745786922508371E-018
   3.1811111111111114         -6.9775645975440824E-018
   3.1911111111111112         -1.1526862751961172E-017
   3.2011111111111110         -1.3949770719080046E-017
   3.2111111111111108         -1.3034555755474838E-017
   3.2211111111111115         -8.2435330921932143E-018
   3.2311111111111113         -2.0497302934516745E-020
   3.2411111111111111          1.0121198341102860E-017
   3.2511111111111108          1.9801572281441510E-017
   3.2611111111111115          2.6267257663603078E-017
   3.2711111111111113          2.7088401512045693E-017
   3.2811111111111111          2.0896357402684018E-017
   3.2911111111111109          7.9579465041674438E-018
   3.3011111111111116         -9.6052245816882076E-018
   3.3111111111111113         -2.8072769602040948E-017
   3.3211111111111111         -4.2859261634859208E-017
   3.3311111111111109         -4.9591754123599755E-017
   3.3411111111111116         -4.5281054562512361E-017
   3.3511111111111114         -2.9278580559461548E-017
   3.3611111111111112         -3.7347932575708246E-018
   3.3711111111111109          2.6615356772061318E-017
   3.3811111111111116          5.5344305592983431E-017
   3.3911111111111114          7.5718677287560761E-017
   3.4011111111111112          8.2251736530614773E-017
   3.4111111111111110          7.2031973002081320E-017
   3.4211111111111117          4.5489202983132755E-017
   3.4311111111111114          6.4096459636126314E-018
   3.4411111111111112         -3.8780529987311285E-017
   3.4511111111111110         -8.2245754360424790E-017
   3.4611111111111117         -1.1614626945825293E-016
   3.4711111111111115         -1.3387391465556679E-016
   3.4811111111111113         -1.3088975140794089E-016
   3.4911111111111111         -1.0512523261395161E-016
   3.5011111111111108         -5.7095652090550104E-017
   3.5111111111111115          1.0025131239122176E-017
   3.5211111111111113          9.0167444711163422E-017
   3.5311111111111111          1.7396329583484318E-016
   3.5411111111111109          2.4845792448683777E-016
   3.5511111111111116          2.9746534499084027E-016
   3.5611111111111113          3.0317617347012677E-016
   3.5711111111111111          2.4942605667576984E-016
   3.5811111111111109          1.2653389771157545E-016
   3.5911111111111116         -6.3093181370147485E-017
   3.6011111111111114         -3.0009993509415636E-016
   3.6111111111111112         -5.4603454843112358E-016
   3.6211111111111109         -7.4580991601901048E-016
   3.6311111111111116         -8.3593146874978946E-016
   3.6411111111111114         -7.5826511199191134E-016
   3.6511111111111112         -4.7733991171100380E-016
   3.6611111111111110          2.5702592331020798E-018
   3.6711111111111117          6.2548862116374110E-016
   3.6811111111111114          1.2818826158365946E-015
   3.6911111111111112          1.8205450659508496E-015
   3.7011111111111110          2.0750807959413718E-015
   3.7111111111111117          1.9021086212990448E-015
   3.7211111111111115          1.2243411266307683E-015
   3.7311111111111113          6.8524230896488950E-017
   3.7411111111111111         -1.4130330681038326E-015
   3.7511111111111108         -2.9471840126102681E-015
   3.7611111111111115         -4.1764314717088885E-015
   3.7711111111111113         -4.7258725219560729E-015
   3.7811111111111111         -4.2911231208989098E-015
   3.7911111111111109         -2.7302465928407066E-015
   3.8011111111111116         -1.3773597461346257E-016
   3.8111111111111113          3.1218716407290219E-015
   3.8211111111111111          6.4381559775777454E-015
   3.8311111111111109          9.0437208028902767E-015
   3.8411111111111116          1.0160537979009808E-014
   3.8511111111111114          9.1810909122100846E-015
   3.8611111111111112          5.8487413249672625E-015
   3.8711111111111109          3.9481703861048395E-016
   3.8811111111111116         -6.4082832431104544E-015
   3.8911111111111114         -1.3307267072125428E-014
   3.9011111111111112         -1.8750541348538582E-014
   3.9111111111111110         -2.1176386111234485E-014
   3.9211111111111117         -1.9363284982582343E-014
   3.9311111111111114         -1.2776853346488891E-014
   3.9411111111111112         -1.8361757884430068E-015
   3.9511111111111110          1.1975354349380140E-014
   3.9611111111111117          2.6210692551922529E-014
   3.9711111111111115          3.7793244689375907E-014
   3.9811111111111113          4.3561074886122597E-014
   3.9911111111111111          4.0947764791540373E-014
   4.0011111111111113          2.8681447001481855E-014
   4.0111111111111111          7.3521892309598609E-015
   4.0211111111111109         -2.0307448891964189E-014
   4.0311111111111106         -4.9556790826998584E-014
   4.0411111111111104         -7.4262827603945730E-014
   4.0511111111111120         -8.7969907779702344E-014
   4.0611111111111118         -8.5284210249447767E-014
   4.0711111111111116         -6.3325687467245817E-014
   4.0811111111111114         -2.2924335159649721E-014
   4.0911111111111111          3.0779537447435390E-014
   4.1011111111111109          8.8609302458398514E-014
   4.1111111111111107          1.3862855633393900E-013
   4.1211111111111105          1.6832882472877370E-013
   4.1311111111111121          1.6739012248783575E-013
   4.1411111111111119          1.3045807652472402E-013
   4.1511111111111116          5.9261779240381979E-014
   4.1611111111111114         -3.6567967485459305E-014
   4.1711111111111112         -1.4040914156181195E-013
   4.1811111111111110         -2.3135142347870119E-013
   4.1911111111111108         -2.8831223432973507E-013
   4.2011111111111106         -2.9477063693585104E-013
   4.2111111111111121         -2.4304801335590931E-013
   4.2211111111111119         -1.3702644433618433E-013
   4.2311111111111117          7.5569323409042759E-015
   4.2411111111111115          1.6558996741074944E-013
   4.2511111111111113          3.0749998359246022E-013
   4.2611111111111111          4.0555411676482245E-013
   4.2711111111111109          4.3997829468275795E-013
   4.2811111111111106          4.0321047824372347E-013
   4.2911111111111104          3.0101897537104794E-013
   4.3011111111111120          1.5012657458325640E-013
   4.3111111111111118         -2.6847378419253380E-014
   4.3211111111111116         -2.0729570132920622E-013
   4.3311111111111114         -3.7313167421289262E-013
   4.3411111111111111         -5.1210034476834032E-013
   4.3511111111111109         -6.1537878742398688E-013
   4.3611111111111107         -6.7266981915170554E-013
   4.3711111111111105         -6.6748239964734002E-013
   4.3811111111111121         -5.7589160220097857E-013
   4.3911111111111119         -3.7134883926551177E-013
   4.4011111111111116         -3.6074157441605414E-014
   4.4111111111111114          4.2332831034011531E-013
   4.4211111111111112          9.6124930931695829E-013
   4.4311111111111110          1.4863244099036499E-012
   4.4411111111111108          1.8688590171928032E-012
   4.4511111111111106          1.9654163279508863E-012
   4.4611111111111121          1.6579619621648334E-012
   4.4711111111111119          8.9861500402257932E-013
   4.4811111111111117         -2.5359477972414224E-013
   4.4911111111111115         -1.6183801260921671E-012
   4.5011111111111113         -2.9125818510472579E-012
   4.5111111111111111         -3.8033703790574247E-012
   4.5211111111111109         -3.9882732533191856E-012
   4.5311111111111106         -3.2849049001748565E-012
   4.5411111111111104         -1.7073726330321670E-012
   4.5511111111111120          4.9502063689463305E-013