 -0.88888888888888884          0.0000000000000000     
 -0.87888888888888883          0.0000000000000000     
 -0.86888888888888882          0.0000000000000000     
 -0.85888888888888881          0.0000000000000000     
 -0.84888888888888880          0.0000000000000000     
 -0.83888888888888880          0.0000000000000000     
 -0.82888888888888879          0.0000000000000000     
 -0.81888888888888878          0.0000000000000000     
 -0.80888888888888888          0.0000000000000000     
 -0.79888888888888887          0.0000000000000000     
 -0.78888888888888886         -3.8077332951902879E-037
 -0.77888888888888885          4.0035074704984595E-037
 -0.76888888888888884          2.7631567667998879E-037
 -0.75888888888888884         -9.5603621359723788E-036
 -0.74888888888888883          1.3012286244995972E-035
 -0.73888888888888882          3.5603956053106047E-035
 -0.72888888888888881         -1.3832612554145739E-035
 -0.71888888888888880          9.3196624484859859E-035
 -0.70888888888888890         -9.3221449915358768E-034
 -0.69888888888888889         -1.5328158889619655E-033
 -0.68888888888888888          1.3780343784576693E-032
 -0.67888888888888888          1.1081534386047465E-032
 -0.66888888888888887         -1.3037858059306356E-031
 -0.65888888888888886         -9.9082559890132713E-032
 -0.64888888888888885          9.4799688540708338E-031
 -0.63888888888888884          1.0186465409197526E-030
 -0.62888888888888883         -5.4165707635043058E-030
 -0.61888888888888882         -8.9528892242242725E-030
 -0.60888888888888881          2.3169134337871193E-029
 -0.59888888888888880          6.1477994940773833E-029
 -0.58888888888888880         -6.0113250889525657E-029
 -0.57888888888888879         -3.2198568293565644E-028
 -0.56888888888888878         -4.3276172471850358E-029
 -0.55888888888888877          1.2234471897649860E-027
 -0.54888888888888876          1.4164207479607205E-027
 -0.53888888888888875         -2.8069677826765652E-027
 -0.52888888888888885         -7.9966067293995989E-027
 -0.51888888888888884         -4.1480250622799660E-028
 -0.50888888888888884          2.4580833391720819E-026
 -0.49888888888888883          3.3186275109975822E-026
 -0.48888888888888882         -2.8414489390660942E-026
 -0.47888888888888881         -1.3628665449603809E-025
 -0.46888888888888886         -1.1233958610074480E-025
 -0.45888888888888885          2.2412295130759892E-025
 -0.44888888888888884          6.4635692978213582E-025
 -0.43888888888888883          3.4082585033463757E-025
 -0.42888888888888882         -1.2659389343649390E-024
 -0.41888888888888881         -2.8554076725466087E-024
 -0.40888888888888886         -9.8219937321516925E-025
 -0.39888888888888885          6.0802282573859967E-024
 -0.38888888888888884          1.2167753478145288E-023
 -0.37888888888888883          3.5555041737751155E-024
 -0.36888888888888882         -2.5645222740514623E-023
 -0.35888888888888881         -5.0951449861950431E-023
 -0.34888888888888880         -1.9407963042474426E-023
 -0.33888888888888880          9.4482975023587893E-023
 -0.32888888888888879          2.0570549010354427E-022
 -0.31888888888888878          1.1710332166708522E-022
 -0.30888888888888888         -2.9351186828059085E-022
 -0.29888888888888887         -7.7213553941738833E-022
 -0.28888888888888886         -6.2526640058175007E-022
 -0.27888888888888885          7.1470888889799951E-022
 -0.26888888888888884          2.6355442480747387E-021
 -0.25888888888888884          2.8632780163134193E-021
 -0.24888888888888883         -1.0386529914180996E-021
 -0.23888888888888882         -8.1563772715750499E-021
 -0.22888888888888881         -1.1625280339351213E-020
 -0.21888888888888880         -1.8259785839909341E-021
 -0.20888888888888879          2.2680515298792616E-020
 -0.19888888888888878          4.3462001625748210E-020
 -0.18888888888888877          2.5571453378528628E-020
 -0.17888888888888888         -5.1820874973098228E-020
 -0.16888888888888887         -1.4953141680986270E-019
 -0.15888888888888886         -1.5330211963218567E-019
 -0.14888888888888885          5.5501550817972172E-020
 -0.13888888888888884          4.4322999708187878E-019
 -0.12888888888888883          6.9451392209295803E-019
 -0.11888888888888882          3.0984135889280934E-019
 -0.10888888888888881         -9.4892443472312287E-019
  -9.8888888888888804E-002    -2.4591194527946081E-018
  -8.8888888888888795E-002    -2.5758656564988110E-018
  -7.8888888888888786E-002     4.2739171139938454E-019
  -6.8888888888888777E-002     6.3204829246146217E-018
  -5.8888888888888768E-002     1.1115501697435489E-017
  -4.8888888888888871E-002     7.8887900690549479E-018
  -3.8888888888888862E-002    -8.1237879451782003E-018
  -2.8888888888888853E-002    -3.1852859269955176E-017
  -1.8888888888888844E-002    -4.4369478366421773E-017
  -8.8888888888888351E-003    -2.0421919690548103E-017
   1.1111111111111738E-003     5.0074701869877615E-017
   1.1111111111111183E-002     1.3711775967597514E-016
   2.1111111111111192E-002     1.6545470429588593E-016
   3.1111111111111200E-002     5.1320915637137756E-017
   4.1111111111111209E-002    -2.2121279210104798E-016
   5.1111111111111218E-002    -5.2752338452270969E-016
   6.1111111111111227E-002    -6.0583115697989613E-016
   7.1111111111111125E-002    -1.9043442059446449E-016
   8.1111111111111134E-002     7.5274711585702320E-016
   9.1111111111111143E-002     1.8251827830953037E-015
  0.10111111111111115          2.2232872095136408E-015
  0.11111111111111116          1.1145078466679608E-015
  0.12111111111111117         -1.7307183865648335E-015
  0.13111111111111118         -5.3906553191802962E-015
  0.14111111111111119         -7.7706836462427403E-015
  0.15111111111111120         -6.3764877438528961E-015
  0.16111111111111120          2.7520611323038531E-016
  0.17111111111111121          1.1224170803404189E-014
  0.18111111111111122          2.2432698602338486E-014
  0.19111111111111123          2.7557246239161108E-014
  0.20111111111111124          2.0185926769087509E-014
  0.21111111111111125         -3.0132786287592316E-015
  0.22111111111111126         -3.9230605390757831E-014
  0.23111111111111127         -7.7746159119970737E-014
  0.24111111111111128         -1.0070147027450155E-013
  0.25111111111111128         -8.7452336767612077E-014
  0.26111111111111129         -2.2751775913569180E-014
  0.27111111111111108          9.2720915580851715E-014
  0.28111111111111109          2.3340064689986173E-013
  0.29111111111111110          3.4722216963635477E-013
  0.30111111111111111          3.6651481545926790E-013
  0.31111111111111112          2.3228416260769047E-013
  0.32111111111111112         -7.4261953465944164E-014
  0.33111111111111113         -5.0549159042595493E-013
  0.34111111111111114         -9.4063461446997065E-013
  0.35111111111111115         -1.2075589009633014E-012
  0.36111111111111116         -1.1316336322869658E-012
  0.37111111111111117         -5.9952466168605723E-013
  0.38111111111111118          3.8066929166150065E-013
  0.39111111111111119          1.6421290325793758E-012
  0.40111111111111120          2.8606962718807916E-012
  0.41111111111111120          3.6056051807425993E-012
  0.42111111111111121          3.4424266822513649E-012
  0.43111111111111122          2.0770232322248061E-012
  0.44111111111111123         -4.9196253624692043E-013
  0.45111111111111124         -3.8658924152168428E-012
  0.46111111111111125         -7.2443080180450981E-012
  0.47111111111111126         -9.5663242952181982E-012
  0.48111111111111127         -9.7831751380561549E-012
  0.49111111111111128         -7.1928244610441894E-012
  0.50111111111111128         -1.7333449129144918E-012
  0.51111111111111129          5.8605047897897222E-012
  0.52111111111111108          1.4090431078861432E-011
  0.53111111111111109          2.0920466747842426E-011
  0.54111111111111110          2.4166333864594769E-011
  0.55111111111111111          2.2004084318516526E-011
  0.56111111111111112          1.3531235160124666E-011
  0.57111111111111112         -7.3526612315993889E-013
  0.58111111111111113         -1.8597359763283805E-011
  0.59111111111111114         -3.6332825636975485E-011
  0.60111111111111115         -4.9361997128682944E-011
  0.61111111111111116         -5.3331672411616182E-011
  0.62111111111111117         -4.5332501641404122E-011
  0.63111111111111118         -2.4883197932701329E-011
  0.64111111111111119          5.6068812787080091E-012
  0.65111111111111120          4.1001604889068233E-011
  0.66111111111111120          7.4171016550828028E-011
  0.67111111111111121          9.7183254499366711E-011
  0.68111111111111122          1.0286484858346157E-010
  0.69111111111111123          8.6599151460919899E-011
  0.70111111111111124          4.8044356687482193E-011
  0.71111111111111125         -7.7943727860851908E-012
  0.72111111111111126         -7.0771943860847841E-011
  0.73111111111111127         -1.2741220578593726E-010
  0.74111111111111128         -1.6400628077839485E-010
  0.75111111111111128         -1.7007616148756455E-010
  0.76111111111111129         -1.4110081159035559E-010
  0.77111111111111130         -7.9785109075025673E-011
  0.78111111111111109          4.1968564040706369E-012
  0.79111111111111110          9.5627387952657017E-011
  0.80111111111111111          1.7604674662496933E-010
  0.81111111111111112          2.2694754409080531E-010
  0.82111111111111112          2.3387819458875470E-010
  0.83111111111111113          1.9084300806326837E-010
  0.84111111111111114          1.0349109069718310E-010
  0.85111111111111115         -1.0716406061150874E-011
  0.86111111111111116         -1.2624393197491202E-010
  0.87111111111111117         -2.1615934042706897E-010
  0.88111111111111118         -2.5921598201250617E-010
  0.89111111111111119         -2.4472607274006464E-010
  0.90111111111111120         -1.7415555109145942E-010
  0.91111111111111120         -6.0305586913056430E-011
  0.92111111111111121          7.4384276516070713E-011
  0.93111111111111122          2.0001075795583745E-010
  0.94111111111111123          2.8317495570640006E-010
  0.95111111111111124          2.9430299863797416E-010
  0.96111111111111125          2.1768975511093913E-010
  0.97111111111111126          6.0380297983719800E-011
  0.98111111111111127         -1.4542518578242181E-010
  0.99111111111111128         -3.4941124993359551E-010
   1.0011111111111113         -4.9754395048395850E-010
   1.0111111111111113         -5.4761811751902201E-010
   1.0211111111111113         -4.7986448148407135E-010
   1.0311111111111111         -3.0076913182242038E-010
   1.0411111111111111         -4.2894243712510161E-011
   1.0511111111111111          2.3574811547355523E-010
   1.0611111111111111          4.5292447570233207E-010
   1.0711111111111111          5.0820664343476096E-010
   1.0811111111111111          2.9698354886420475E-010
   1.0911111111111111         -2.7153676529501070E-010
   1.1011111111111112         -1.2642521474148793E-009
   1.1111111111111112         -2.7346260811356160E-009
   1.1211111111111114         -4.7567301209028301E-009
   1.1311111111111112         -7.4729813448470850E-009
   1.1411111111111114         -1.1141765732247677E-008
   1.1511111111111112         -1.6183051343432453E-008
   1.1611111111111110         -2.3240229296561665E-008
   1.1711111111111112         -3.3287538059312283E-008
   1.1811111111111110         -4.7799076696719567E-008
   1.1911111111111112         -6.8964268962190545E-008
   1.2011111111111110         -9.9915858697841031E-008
   1.2111111111111112         -1.4495992672891589E-007
   1.2211111111111110         -2.0986901461128582E-007
   1.2311111111111113         -3.0237114856390690E-007
   1.2411111111111111         -4.3297964680277801E-007
   1.2511111111111113         -6.1621642544196220E-007
   1.2611111111111111         -8.7213425103982445E-007
   1.2711111111111113         -1.2279610928089824E-006
   1.2811111111111111         -1.7198173054566723E-006
   1.2911111111111113         -2.3948239231685875E-006
   1.3011111111111111         -3.3142941902042367E-006
   1.3111111111111113         -4.5587985368911177E-006
   1.3211111111111111         -6.2354274632525630E-006
   1.3311111111111114         -8.4866460383636877E-006
   1.3411111111111111         -1.1499364518385846E-005
   1.3511111111111114         -1.5513036487391219E-005
   1.3611111111111112         -2.0827261323574930E-005
   1.3711111111111114         -2.7811980544356629E-005
   1.3811111111111112         -3.6924935557181016E-005
   1.3911111111111114         -4.8740112106315792E-005
   1.4011111111111112         -6.3986015447881073E-005
   1.4111111111111114         -8.3586186519823968E-005
   1.4211111111111112         -1.0869030666071922E-004
   1.4311111111111110         -1.4068833843339235E-004
   1.4411111111111112         -1.8121126049663872E-004
   1.4511111111111110         -2.3213888925965875E-004
   1.4611111111111112         -2.9564203578047454E-004
   1.4711111111111110         -3.7427674396894872E-004
   1.4811111111111113         -4.7111953608691692E-004
   1.4911111111111111         -5.8989465469494462E-004
   1.5011111111111113         -7.3502497980371118E-004
   1.5111111111111111         -9.1155397240072489E-004
   1.5211111111111113         -1.1249496601521969E-003
   1.5311111111111111         -1.3808814110234380E-003
   1.5411111111111113         -1.6851046821102500E-003
   1.5511111111111111         -2.0435629412531853E-003
   1.5611111111111113         -2.4627153761684895E-003
   1.5711111111111111         -2.9499258380383253E-003
   1.5811111111111114         -3.5136435180902481E-003
   1.5911111111111111         -4.1631287895143032E-003
   1.6011111111111114         -4.9076178111135960E-003
   1.6111111111111112         -5.7550962083041668E-003
   1.6211111111111114         -6.7111030220985413E-003
   1.6311111111111112         -7.7779712155461311E-003
   1.6411111111111114         -8.9547997340559959E-003
   1.6511111111111112         -1.0238115675747395E-002
   1.6611111111111114         -1.1622823774814606E-002
   1.6711111111111112         -1.3102852739393711E-002
   1.6811111111111110         -1.4671094715595245E-002
   1.6911111111111112         -1.6318596899509430E-002
   1.7011111111111110         -1.8033193424344063E-002
   1.7111111111111112         -1.9798099994659424E-002
   1.7211111111111110         -2.1590976044535637E-002
   1.7311111111111113         -2.3383516818284988E-002
   1.7411111111111111         -2.5141522288322449E-002
   1.7511111111111113         -2.6825213804841042E-002
   1.7611111111111111         -2.8389509767293930E-002
   1.7711111111111113         -2.9784258455038071E-002
   1.7811111111111111         -3.0954651534557343E-002
   1.7911111111111113         -3.1842138618230820E-002
   1.8011111111111111         -3.2385893166065216E-002
   1.8111111111111113         -3.2524775713682175E-002
   1.8211111111111111         -3.2199826091527939E-002
   1.8311111111111114         -3.1357087194919586E-002
   1.8411111111111111         -2.9950303956866264E-002
   1.8511111111111114         -2.7943575754761696E-002
   1.8611111111111112         -2.5313779711723328E-002
   1.8711111111111114         -2.2052165120840073E-002
   1.8811111111111112         -1.8164977431297302E-002
   1.8911111111111114         -1.3673425652086735E-002
   1.9011111111111112         -8.6132343858480453E-003
   1.9111111111111114         -3.0342717655003071E-003
   1.9211111111111112          2.9992691706866026E-003
   1.9311111111111110          9.4080977141857147E-003
   1.9411111111111112          1.6097242012619972E-002
   1.9511111111111110          2.2956695407629013E-002
   1.9611111111111112          2.9863748699426651E-002
   1.9711111111111110          3.6687020212411880E-002
   1.9811111111111113          4.3291527777910233E-002
   1.9911111111111111          4.9543768167495728E-002
   2.0011111111111113          5.5315826088190079E-002
   2.0111111111111111          6.0488373041152954E-002
   2.0211111111111113          6.4953185617923737E-002
   2.0311111111111111          6.8615496158599854E-002
   2.0411111111111113          7.1396544575691223E-002
   2.0511111111111111          7.3236107826232910E-002
   2.0611111111111113          7.4094161391258240E-002
   2.0711111111111111          7.3951937258243561E-002
   2.0811111111111114          7.2811968624591827E-002
   2.0911111111111111          7.0697836577892303E-002
   2.1011111111111114          6.7654319107532501E-002
   2.1111111111111112          6.3747458159923553E-002
   2.1211111111111114          5.9063605964183807E-002
   2.1311111111111112          5.3707048296928406E-002
   2.1411111111111114          4.7795716673135757E-002
   2.1511111111111112          4.1455831378698349E-002
   2.1611111111111114          3.4816425293684006E-002
   2.1711111111111112          2.8005486354231834E-002
   2.1811111111111114          2.1147733554244041E-002
   2.1911111111111112          1.4363110996782780E-002
   2.2011111111111110          7.7650323510169983E-003
   2.2111111111111112          1.4577896799892187E-003
   2.2211111111111110         -4.4666836038231850E-003
   2.2311111111111113         -9.9316667765378952E-003
   2.2411111111111111         -1.4876861125230789E-002
   2.2511111111111113         -1.9257679581642151E-002
   2.2611111111111111         -2.3043638095259666E-002
   2.2711111111111113         -2.6217170059680939E-002
   2.2811111111111111         -2.8773447498679161E-002
   2.2911111111111113         -3.0720923095941544E-002
   2.3011111111111111         -3.2081708312034607E-002
   2.3111111111111113         -3.2890614122152328E-002
   2.3211111111111111         -3.3192340284585953E-002
   2.3311111111111114         -3.3037852495908737E-002
   2.3411111111111111         -3.2481316477060318E-002
   2.3511111111111114         -3.1578164547681808E-002
   2.3611111111111112         -3.0384169891476631E-002
   2.3711111111111114         -2.8954727575182915E-002
   2.3811111111111112         -2.7343651279807091E-002
   2.3911111111111114         -2.5601428002119064E-002
   2.4011111111111112         -2.3773692548274994E-002
   2.4111111111111114         -2.1900743246078491E-002
   2.4211111111111112         -2.0018402487039566E-002
   2.4311111111111114         -1.8159225583076477E-002
   2.4411111111111112         -1.6352649778127670E-002
   2.4511111111111110         -1.4623817987740040E-002
   2.4611111111111112         -1.2991709634661674E-002
   2.4711111111111110         -1.1467696167528629E-002
   2.4811111111111113         -1.0055954568088055E-002
   2.4911111111111111         -8.7560266256332397E-003
   2.5011111111111113         -7.5661432929337025E-003
   2.5111111111111111         -6.4852605573832989E-003
   2.5211111111111113         -5.5130622349679470E-003
   2.5311111111111111         -4.6484977938234806E-003
   2.5411111111111113         -3.8880335632711649E-003
   2.5511111111111111         -3.2250608783215284E-003
   2.5611111111111113         -2.6511882897466421E-003
   2.5711111111111111         -2.1583766210824251E-003
   2.5811111111111114         -1.7400884535163641E-003
   2.5911111111111111         -1.3908293331041932E-003
   2.6011111111111114         -1.1047812877222896E-003
   2.6111111111111112         -8.7459210772067308E-004
   2.6211111111111114         -6.9136271486058831E-004
   2.6311111111111112         -5.4623588221147656E-004
   2.6411111111111114         -4.3253047624602914E-004
   2.6511111111111112         -3.4671209868974984E-004
   2.6611111111111114         -2.8766624745912850E-004
   2.6711111111111112         -2.5506975362077355E-004
   2.6811111111111114         -2.4791521718725562E-004
   2.6911111111111112         -2.6398021145723760E-004
   2.7011111111111110         -3.0045869061723351E-004
   2.7111111111111112         -3.5491611924953759E-004
   2.7211111111111110         -4.2540128924883902E-004
   2.7311111111111113         -5.0963042303919792E-004
   2.7411111111111111         -6.0416996711865067E-004
   2.7511111111111113         -7.0441962452605367E-004
   2.7611111111111111         -8.0559635534882545E-004
   2.7711111111111113         -9.0423534857109189E-004
   2.7811111111111111         -9.9902856163680553E-004
   2.7911111111111113         -1.0900923516601324E-003
   2.8011111111111111         -1.1771537829190493E-003
   2.8111111111111113         -1.2580145848914981E-003
   2.8211111111111111         -1.3282512081786990E-003
   2.8311111111111114         -1.3823447516188025E-003
   2.8411111111111111         -1.4155867975205183E-003
   2.8511111111111114         -1.4253723202273250E-003
   2.8611111111111112         -1.4109634794294834E-003
   2.8711111111111114         -1.3723494485020638E-003
   2.8811111111111112         -1.3094763271510601E-003
   2.8911111111111114         -1.2223634403198957E-003
   2.9011111111111112         -1.1119608534500003E-003
   2.9111111111111114         -9.8114053253084421E-004
   2.9211111111111112         -8.3466665819287300E-004
   2.9311111111111114         -6.7760370438918471E-004
   2.9411111111111112         -5.1339936908334494E-004
   2.9511111111111110         -3.4326332388445735E-004
   2.9611111111111112         -1.6705697635188699E-004
   2.9711111111111110          1.5013073607406113E-005
   2.9811111111111113          2.0072056213393807E-004
   2.9911111111111111          3.8539903471246362E-004
   3.0011111111111113          5.6347559439018369E-004
   3.0111111111111111          7.3064432945102453E-004
   3.0211111111111113          8.8474008953198791E-004
   3.0311111111111111          1.0251260828226805E-003
   3.0411111111111113          1.1515213409438729E-003
   3.0511111111111111          1.2628481490537524E-003
   3.0611111111111113          1.3568515423685312E-003
   3.0711111111111111          1.4312036801129580E-003
   3.0811111111111114          1.4850617153570056E-003
   3.0911111111111111          1.5192058635875583E-003
   3.1011111111111114          1.5347896842285991E-003
   3.1111111111111112          1.5321394894272089E-003
   3.1211111111111109          1.5101714525371790E-003
   3.1311111111111116          1.4665627386420965E-003
   3.1411111111111114          1.3991590822115541E-003
   3.1511111111111112          1.3078653719276190E-003
   3.1611111111111110          1.1951748747378588E-003
   3.1711111111111117          1.0652183555066586E-003
   3.1811111111111114          9.2291965847834945E-004
   3.1911111111111112          7.7377771958708763E-004
   3.2011111111111110          6.2373210676014423E-004
   3.2111111111111108          4.7925949911586940E-004
   3.2211111111111115          3.4753649379126728E-004
   3.2311111111111113          2.3547584714833647E-004
   3.2411111111111111          1.4776751049794257E-004
   3.2511111111111108          8.5887164459563792E-005
   3.2611111111111115          4.8842357500689104E-005
   3.2711111111111113          3.4541179047664627E-005
   3.2811111111111111          4.1082497773459181E-005
   3.2911111111111109          6.7694716562982649E-005
   3.3011111111111116          1.1430788435973227E-004
   3.3111111111111113          1.7969663895200938E-004
   3.3211111111111111          2.6017642812803388E-004
   3.3311111111111109          3.5014527384191751E-004
   3.3411111111111116          4.4354319106787443E-004
   3.3511111111111114          5.3525838302448392E-004
   3.3611111111111112          6.2229414470493793E-004
   3.3711111111111109          7.0393993519246578E-004
   3.3811111111111116          7.8049680450931191E-004
   3.3911111111111114          8.5194729035720229E-004
   3.4011111111111112          9.1790308943018317E-004
   3.4111111111111110          9.7818905487656593E-004
   3.4211111111111117          1.0331281227990985E-003
   3.4311111111111114          1.0836413130164146E-003
   3.4411111111111112          1.1310038389638066E-003
   3.4511111111111110          1.1758556356653571E-003
   3.4611111111111117          1.2172868009656668E-003
   3.4711111111111115          1.2531186221167445E-003
   3.4811111111111113          1.2809019535779953E-003
   3.4911111111111111          1.2986601796001196E-003
   3.5011111111111108          1.3054285664111376E-003
   3.5111111111111115          1.3016815064474940E-003
   3.5211111111111113          1.2891797814518213E-003
   3.5311111111111111          1.2704468099400401E-003
   3.5411111111111109          1.2485813349485397E-003
   3.5511111111111116          1.2271421728655696E-003
   3.5611111111111113          1.2094726553186774E-003
   3.5711111111111111          1.1978191323578358E-003
   3.5811111111111109          1.1928592575713992E-003
   3.5911111111111116          1.1935868533328176E-003
   3.6011111111111114          1.1975397355854511E-003
   3.6111111111111112          1.2015791144222021E-003
   3.6211111111111109          1.2027486227452755E-003
   3.6311111111111116          1.1984263546764851E-003
   3.6411111111111114          1.1858619982376695E-003
   3.6511111111111112          1.1617076816037297E-003
   3.6611111111111110          1.1217488208785653E-003
   3.6711111111111117          1.0609737364575267E-003
   3.6811111111111114          9.7419461235404015E-004
   3.6911111111111112          8.5690425476059318E-004
   3.7011111111111110          7.0573412813246250E-004
   3.7111111111111117          5.1850557792931795E-004
   3.7211111111111115          2.9425701359286904E-004
   3.7311111111111113          3.3363998227287084E-005
   3.7411111111111111         -2.6220452855341136E-004
   3.7511111111111108         -5.8843119768425822E-004
   3.7611111111111115         -9.3895284226164222E-004
   3.7711111111111113         -1.3054182054474950E-003
   3.7811111111111111         -1.6784083563834429E-003
   3.7911111111111109         -2.0484474953263998E-003
   3.8011111111111116         -2.4067950434982777E-003
   3.8111111111111113         -2.7457848191261292E-003
   3.8211111111111111         -3.0585560016334057E-003
   3.8311111111111109         -3.3385611604899168E-003
   3.8411111111111116         -3.5794333089143038E-003
   3.8511111111111114         -3.7752373609691858E-003
   3.8611111111111112         -3.9207912050187588E-003
   3.8711111111111109         -4.0118861943483353E-003
   3.8811111111111116         -4.0452457033097744E-003
   3.8911111111111114         -4.0181376971304417E-003
   3.9011111111111112         -3.9281067438423634E-003
   3.9111111111111110         -3.7733756471425295E-003
   3.9211111111111117         -3.5538151860237122E-003
   3.9311111111111114         -3.2719087321311235E-003
   3.9411111111111112         -2.9332605190575123E-003
   3.9511111111111110         -2.5463283527642488E-003
   3.9611111111111117         -2.1212869323790073E-003
   3.9711111111111115         -1.6686714952811599E-003
   3.9811111111111113         -1.1986198369413614E-003
   3.9911111111111111         -7.2084466228261590E-004
   4.0011111111111113         -2.4493157980032265E-004
   4.0111111111111111          2.1943032334093004E-004
   4.0211111111111109          6.6263071494176984E-004
   4.0311111111111106          1.0758097050711513E-003
   4.0411111111111104          1.4515044167637825E-003
   4.0511111111111120          1.7836998449638486E-003
   4.0611111111111118          2.0674155093729496E-003
   4.0711111111111116          2.2984156385064125E-003
   4.0811111111111114          2.4734239559620619E-003
   4.0911111111111111          2.5909133255481720E-003
   4.1011111111111109          2.6520993560552597E-003
   4.1111111111111107          2.6612535584717989E-003
   4.1211111111111105          2.6247794739902020E-003
   4.1311111111111121          2.5495302397757769E-003
   4.1411111111111119          2.4414299987256527E-003
   4.1511111111111116          2.3051549214869738E-003
   4.1611111111111114          2.1450598724186420E-003
   4.1711111111111112          1.9667234737426043E-003
   4.1811111111111110          1.7778035253286362E-003
   4.1911111111111108          1.5873262891545892E-003
   4.2011111111111106          1.4039189554750919E-003
   4.2111111111111121          1.2341869296506047E-003
   4.2211111111111119          1.0821480536833405E-003
   4.2311111111111117          9.5003825845196843E-004
   4.2411111111111115          8.3995028398931026E-004
   4.2511111111111113          7.5488898437470198E-004
   4.2611111111111111          6.9824542151764035E-004
   4.2711111111111109          6.7223311634734273E-004
   4.2811111111111106          6.7653495352715254E-004
   4.2911111111111104          7.0792448241263628E-004
   4.3011111111111120          7.6108973007649183E-004
   4.3111111111111118          8.3024229388684034E-004
   4.3211111111111116          9.1024237917736173E-004
   4.3311111111111114          9.9629745818674564E-004
   4.3411111111111111          1.0828849626705050E-003
   4.3511111111111109          1.1631652014330029E-003
   4.3611111111111107          1.2293255422264338E-003
   4.3711111111111105          1.2736718636006117E-003
   4.3811111111111121          1.2900406727567315E-003
   4.3911111111111119          1.2745213462039828E-003
   4.4011111111111116          1.2247618287801743E-003
   4.4111111111111114          1.1387348640710115E-003
   4.4211111111111112          1.0144095867872238E-003
   4.4311111111111110          8.5053883958607912E-004
   4.4411111111111108          6.4786325674504042E-004
   4.4511111111111106          4.1008400148712099E-004
   4.4611111111111121          1.4376705803442746E-004
   4.4711111111111119         -1.4337294851429760E-004
   4.4811111111111117         -4.4474404421634972E-004
   4.4911111111111115         -7.5589364860206842E-004
   4.5011111111111113         -1.0738667333498597E-003
   4.5111111111111111         -1.3957575429230928E-003
   4.5211111111111109         -1.7172178486362100E-003
   4.5311111111111106         -2.0317197777330875E-003
   4.5411111111111104         -2.3313325364142656E-003
   4.5511111111111120         -2.6084284763783216E-003