 -0.88888888888888884          0.0000000000000000     
 -0.87888888888888883          0.0000000000000000     
 -0.86888888888888882          0.0000000000000000     
 -0.85888888888888881          0.0000000000000000     
 -0.84888888888888880          0.0000000000000000     
 -0.83888888888888880          0.0000000000000000     
 -0.82888888888888879          0.0000000000000000     
 -0.81888888888888878          0.0000000000000000     
 -0.80888888888888888          0.0000000000000000     
 -0.79888888888888887          0.0000000000000000     
 -0.78888888888888886          0.0000000000000000     
 -0.77888888888888885          0.0000000000000000     
 -0.76888888888888884          0.0000000000000000     
 -0.75888888888888884          0.0000000000000000     
 -0.74888888888888883          0.0000000000000000     
 -0.73888888888888882          0.0000000000000000     
 -0.72888888888888881          0.0000000000000000     
 -0.71888888888888880          0.0000000000000000     
 -0.70888888888888890          0.0000000000000000     
 -0.69888888888888889          0.0000000000000000     
 -0.68888888888888888          0.0000000000000000     
 -0.67888888888888888          0.0000000000000000     
 -0.66888888888888887          0.0000000000000000     
 -0.65888888888888886          0.0000000000000000     
 -0.64888888888888885          0.0000000000000000     
 -0.63888888888888884          0.0000000000000000     
 -0.62888888888888883          0.0000000000000000     
 -0.61888888888888882          0.0000000000000000     
 -0.60888888888888881          0.0000000000000000     
 -0.59888888888888880          0.0000000000000000     
 -0.58888888888888880          0.0000000000000000     
 -0.57888888888888879          0.0000000000000000     
 -0.56888888888888878          0.0000000000000000     
 -0.55888888888888877          0.0000000000000000     
 -0.54888888888888876          0.0000000000000000     
 -0.53888888888888875          0.0000000000000000     
 -0.52888888888888885          0.0000000000000000     
 -0.51888888888888884          0.0000000000000000     
 -0.50888888888888884          0.0000000000000000     
 -0.49888888888888883          0.0000000000000000     
 -0.48888888888888882          0.0000000000000000     
 -0.47888888888888881          0.0000000000000000     
 -0.46888888888888886          0.0000000000000000     
 -0.45888888888888885          0.0000000000000000     
 -0.44888888888888884          0.0000000000000000     
 -0.43888888888888883          0.0000000000000000     
 -0.42888888888888882          0.0000000000000000     
 -0.41888888888888881          0.0000000000000000     
 -0.40888888888888886          0.0000000000000000     
 -0.39888888888888885          0.0000000000000000     
 -0.38888888888888884          0.0000000000000000     
 -0.37888888888888883          0.0000000000000000     
 -0.36888888888888882          0.0000000000000000     
 -0.35888888888888881          0.0000000000000000     
 -0.34888888888888880          0.0000000000000000     
 -0.33888888888888880         -3.6801194542775854E-038
 -0.32888888888888879         -9.0537322050252986E-038
 -0.31888888888888878         -1.8773077817488571E-037
 -0.30888888888888888          1.5176053400327597E-037
 -0.29888888888888887          1.5267297884845275E-036
 -0.28888888888888886          2.7902735736427303E-036
 -0.27888888888888885         -9.4175974000114579E-037
 -0.26888888888888884         -1.2204176926694474E-035
 -0.25888888888888884         -2.1482736102987547E-035
 -0.24888888888888883         -3.9188376541676396E-036
 -0.23888888888888882          6.0795936455492624E-035
 -0.22888888888888881          1.3685680352067761E-034
 -0.21888888888888880          9.1110908353586151E-035
 -0.20888888888888879         -2.3318359497433452E-034
 -0.19888888888888878         -7.5539989906301280E-034
 -0.18888888888888877         -8.6246663368304340E-034
 -0.17888888888888888          4.3090330598607796E-034
 -0.16888888888888887          3.3533764482869108E-033
 -0.15888888888888886          5.6285038873172002E-033
 -0.14888888888888885          2.1404719897497040E-033
 -0.13888888888888884         -1.1061565675762871E-032
 -0.12888888888888883         -2.8189923817676802E-032
 -0.11888888888888882         -2.7606996169104030E-032
 -0.10888888888888881          1.8083705176030251E-032
  -9.8888888888888804E-002     1.0750540009174070E-031
  -8.8888888888888795E-002     1.6972248230957709E-031
  -7.8888888888888786E-002     7.0750530560385004E-032
  -6.8888888888888777E-002    -2.7667810369343821E-031
  -5.8888888888888768E-002    -7.2182504848118856E-031
  -4.8888888888888871E-002    -7.7140349755762791E-031
  -3.8888888888888862E-002     1.6988084490851987E-031
  -2.8888888888888853E-002     2.1177237907464964E-030
  -1.8888888888888844E-002     3.7762697715646185E-030
  -8.8888888888888351E-003     2.6651936396419692E-030
   1.1111111111111738E-003    -3.0913426914195830E-030
   1.1111111111111183E-002    -1.1770460033653729E-029
   2.1111111111111192E-002    -1.6288952736971615E-029
   3.1111111111111200E-002    -7.0346930922699666E-030
   4.1111111111111209E-002     1.9630833899636192E-029
   5.1111111111111218E-002     5.1756370026931011E-029
   6.1111111111111227E-002     6.0823124592902487E-029
   7.1111111111111125E-002     1.7482690760118665E-029
   8.1111111111111134E-002    -7.9868724053851853E-029
   9.1111111111111143E-002    -1.8377815752800904E-028
  0.10111111111111115         -2.0905750471792271E-028
  0.11111111111111116         -8.3735311288169811E-029
  0.12111111111111117          1.8863572599668037E-028
  0.13111111111111118          5.0506636493430564E-028
  0.14111111111111119          7.0334629346106447E-028
  0.15111111111111120          6.3040564497378390E-028
  0.16111111111111120          1.6764171737777412E-028
  0.17111111111111121         -7.9468207662617084E-028
  0.18111111111111122         -2.3008563118579378E-027
  0.19111111111111123         -4.0078032067434839E-027
  0.20111111111111124         -4.6630627369083421E-027
  0.21111111111111125         -1.9703736667488879E-027
  0.22111111111111126          6.2375069997710075E-027
  0.23111111111111127          1.9169722131042975E-026
  0.24111111111111128          2.9974628231082688E-026
  0.25111111111111128          2.5683617796389039E-026
  0.26111111111111129         -6.4342850399788845E-027
  0.27111111111111108         -6.6352705437804677E-026
  0.28111111111111109         -1.2929218230204105E-025
  0.29111111111111110         -1.4580312732997834E-025
  0.30111111111111111         -6.2934306127521685E-026
  0.31111111111111112          1.3672592676072975E-025
  0.32111111111111112          3.9772471109880556E-025
  0.33111111111111113          5.8437765687692479E-025
  0.34111111111111114          5.2256251634380631E-025
  0.35111111111111115          8.4782178676166930E-026
  0.36111111111111116         -7.1366165474707418E-025
  0.37111111111111117         -1.6499057387133671E-024
  0.38111111111111118         -2.2938690672938360E-024
  0.39111111111111119         -2.0937697655190951E-024
  0.40111111111111120         -5.6242903199954085E-025
  0.41111111111111120          2.4281688893184135E-024
  0.42111111111111121          6.2895047725016263E-024
  0.43111111111111122          9.4632211729637604E-024
  0.44111111111111123          9.5697639379620051E-024
  0.45111111111111124          4.2443596043194492E-024
  0.46111111111111125         -7.3550440463021614E-024
  0.47111111111111126         -2.2932254356812662E-023
  0.48111111111111127         -3.6371299782210492E-023
  0.49111111111111128         -3.8981580564158024E-023
  0.50111111111111128         -2.2867239596447967E-023
  0.51111111111111129          1.4598615735809352E-023
  0.52111111111111108          6.7086195505834934E-023
  0.53111111111111109          1.1820546763676208E-022
  0.54111111111111110          1.4387004113528178E-022
  0.55111111111111111          1.1814623364911085E-022
  0.56111111111111112          2.2433657977111343E-023
  0.57111111111111112         -1.4231048205832156E-022
  0.58111111111111113         -3.4247478597165274E-022
  0.59111111111111114         -5.0447839166791165E-022
  0.60111111111111115         -5.2435723209559974E-022
  0.61111111111111116         -3.0376531824358528E-022
  0.62111111111111117          1.9075790123592687E-022
  0.63111111111111118          8.6922818622230492E-022
  0.64111111111111119          1.4998287001620912E-021
  0.65111111111111120          1.7632299875041112E-021
  0.66111111111111120          1.3770906270905464E-021
  0.67111111111111121          2.4188343376699785E-022
  0.68111111111111122         -1.4649595840254824E-021
  0.69111111111111123         -3.2970401396469331E-021
  0.70111111111111124         -4.6414101795405562E-021
  0.71111111111111125         -4.8612120207969992E-021
  0.72111111111111126         -3.4352919891458777E-021
  0.73111111111111127         -1.1275660972689606E-022
  0.74111111111111128          4.8620622235262102E-021
  0.75111111111111128          1.0468805102613221E-020
  0.76111111111111129          1.4761542094194553E-020
  0.77111111111111130          1.5169854277304640E-020
  0.78111111111111109          9.4624461833886968E-021
  0.79111111111111110         -2.8295980732815513E-021
  0.80111111111111111         -1.9244024140096607E-020
  0.81111111111111112         -3.4376960635804666E-020
  0.82111111111111112         -4.1490885155996897E-020
  0.83111111111111113         -3.5257665650103557E-020
  0.84111111111111114         -1.4326742360024297E-020
  0.85111111111111115          1.7618599696145703E-020
  0.86111111111111116          5.2742987485638787E-020
  0.87111111111111117          8.1125008330753670E-020
  0.88111111111111118          9.2822492490292813E-020
  0.89111111111111119          7.9502196291198270E-020
  0.90111111111111120          3.6387927177800575E-020
  0.91111111111111120         -3.4533785678891624E-020
  0.92111111111111121         -1.2068917981378716E-019
  0.93111111111111122         -1.9741983637679262E-019
  0.94111111111111123         -2.3242061397908444E-019
  0.95111111111111124         -1.9707664689546261E-019
  0.96111111111111125         -8.0790995384344171E-020
  0.97111111111111126          9.9059660491141386E-020
  0.98111111111111127          2.9759688862852243E-019
  0.99111111111111128          4.5367852898934235E-019
   1.0011111111111113          5.0660883410963318E-019
   1.0111111111111113          4.1233216456482068E-019
   1.0211111111111113          1.5743948318571985E-019
   1.0311111111111111         -2.2720637759027986E-019
   1.0411111111111111         -6.5512595946744394E-019
   1.0511111111111111         -9.8674602746119123E-019
   1.0611111111111111         -1.0621568785827771E-018
   1.0711111111111111         -7.6842824839007064E-019
   1.0811111111111111         -1.1795065622426258E-019
   1.0911111111111111          7.1003901651602438E-019
   1.1011111111111112          1.4081633234888350E-018
   1.1111111111111112          1.6627043755594183E-018
   1.1211111111111114          1.3079800673825110E-018
   1.1311111111111112          4.3560065179836078E-019
   1.1411111111111114         -5.9978085564516940E-019
   1.1511111111111112         -1.2902331141353389E-018
   1.1611111111111110         -1.1771305376318555E-018
   1.1711111111111112         -1.1120745402133615E-019
   1.1811111111111110          1.4945479662068556E-018
   1.1911111111111112          2.5669552669403898E-018
   1.2011111111111110          1.6614570905932649E-018
   1.2111111111111112         -2.2076613028670099E-018
   1.2211111111111110         -8.4111215386576828E-018
   1.2311111111111113         -1.3973778809178785E-017
   1.2411111111111111         -1.4253893597452518E-017
   1.2511111111111113         -5.4303790964549915E-018
   1.2611111111111111          1.2206509084820467E-017
   1.2711111111111113          3.2483051782712376E-017
   1.2811111111111111          4.5251964274730096E-017
   1.2911111111111113          4.1845323492326408E-017
   1.3011111111111111          2.0691942875348689E-017
   1.3111111111111113         -1.1612364275977716E-017
   1.3211111111111111         -4.5606857844739847E-017
   1.3311111111111114         -7.6392544936660761E-017
   1.3411111111111111         -1.0476556786616866E-016
   1.3511111111111114         -1.2716569164599855E-016
   1.3611111111111112         -1.2123272877629461E-016
   1.3711111111111114         -4.5107915734137662E-017
   1.3811111111111112          1.3375834759782578E-016
   1.3911111111111114          3.8717055455826416E-016
   1.4011111111111112          5.9047487316264929E-016
   1.4111111111111114          5.5333544304086361E-016
   1.4211111111111112          1.3621078591281280E-016
   1.4311111111111110         -5.9872507994802458E-016
   1.4411111111111112         -1.3165579212356992E-015
   1.4511111111111110         -1.5246890570900129E-015
   1.4611111111111112         -8.7172231654042789E-016
   1.4711111111111110          5.3079647864957792E-016
   1.4811111111111113          2.0148925405336126E-015
   1.4911111111111111          2.6544210504354489E-015
   1.5011111111111113          1.8571178310309222E-015
   1.5111111111111111         -1.2354311701904912E-016
   1.5211111111111113         -2.1883430770329015E-015
   1.5311111111111111         -3.0477914097115817E-015
   1.5411111111111113         -2.1725401950942148E-015
   1.5511111111111111         -3.2152843929159167E-016
   1.5611111111111113          9.1943986468443969E-016
   1.5711111111111111          4.6200268613507019E-016
   1.5811111111111114         -1.0364195616232317E-015
   1.5911111111111111         -1.1964989418962826E-015
   1.6011111111111114          2.3054466525402294E-015
   1.6111111111111112          9.1287671459593447E-015
   1.6211111111111114          1.4874042549386547E-014
   1.6311111111111112          1.2731175400742308E-014
   1.6411111111111114         -1.8491178166023421E-015
   1.6511111111111112         -2.6002332611293338E-014
   1.6611111111111114         -4.7753447517898812E-014
   1.6711111111111112         -5.0519033807606625E-014
   1.6811111111111110         -2.2872235857130004E-014
   1.6911111111111112          3.1516080028918050E-014
   1.7011111111111110          9.0583017974509017E-014
   1.7111111111111112          1.2151076585892318E-013
   1.7211111111111110          9.7479905820496010E-014
   1.7311111111111113          1.5364383146288484E-014
   1.7411111111111111         -9.6308303400381018E-014
   1.7511111111111113         -1.8611642175342391E-013
   1.7611111111111111         -2.0353562043239071E-013
   1.7711111111111113         -1.2689698738414107E-013
   1.7811111111111111          1.9662485818672769E-014
   1.7911111111111113          1.7168157086938640E-013
   1.8011111111111111          2.5295504623226717E-013
   1.8111111111111113          2.1517458496413122E-013
   1.8211111111111111          6.8610732600980079E-014
   1.8311111111111114         -1.1452914083689286E-013
   1.8411111111111111         -2.3065479647782494E-013
   1.8511111111111114         -1.9859042524588560E-013
   1.8611111111111112         -1.1334539196431424E-014
   1.8711111111111114          2.4334638579377732E-013
   1.8811111111111112          4.1161819504080543E-013
   1.8911111111111114          3.4665803214095625E-013
   1.9011111111111112         -4.1393331226850447E-015
   1.9111111111111114         -5.4256414899062078E-013
   1.9211111111111112         -1.0317168126772192E-012
   1.9311111111111110         -1.1861940466331711E-012
   1.9411111111111112         -8.0966250414274410E-013
   1.9511111111111110          8.2599759551691548E-014
   1.9611111111111112          1.2230997464834914E-012
   1.9711111111111110          2.1699031460542528E-012
   1.9811111111111113          2.4839570504642250E-012
   1.9911111111111111          1.9326189953927653E-012
   2.0011111111111113          6.2164845753692743E-013
   2.0111111111111111         -1.0189444774044709E-012
   2.0211111111111113         -2.4048241696605910E-012
   2.0311111111111111         -3.0547639071065724E-012
   2.0411111111111113         -2.8156062550910299E-012
   2.0511111111111111         -1.9386866244308631E-012
   2.0611111111111113         -9.5463047189436878E-013
   2.0711111111111111         -3.8910744743457515E-013
   2.0811111111111114         -4.4619126102207751E-013
   2.0911111111111111         -8.1749212434145679E-013
   2.1011111111111114         -7.3622358209846084E-013
   2.1111111111111112          7.0132056629104711E-013
   2.1211111111111114          4.0418046513834849E-012
   2.1311111111111112          8.9963418659078087E-012
   2.1411111111111114          1.4197110501101839E-011
   2.1511111111111112          1.7360930401610908E-011
   2.1611111111111114          1.5908921749407945E-011
   2.1711111111111112          7.9227553337335443E-012
   2.1811111111111114         -6.8453025366121967E-012
   2.1911111111111112         -2.6284837154055829E-011
   2.2011111111111110         -4.5906257961636499E-011
   2.2111111111111112         -5.9654219064508851E-011
   2.2211111111111110         -6.1446500665418569E-011
   2.2311111111111113         -4.7049975027135815E-011
   2.2411111111111111         -1.5738995176595161E-011
   2.2511111111111113          2.8796827769572708E-011
   2.2611111111111111          7.8625224386730252E-011
   2.2711111111111113          1.2285214512353093E-010
   2.2811111111111111          1.4975012896378814E-010
   2.2911111111111113          1.4928162872518413E-010
   2.3011111111111111          1.1549187300952113E-010
   2.3111111111111113          4.8276674324831959E-011
   2.3211111111111111         -4.5862397213269901E-011
   2.3311111111111114         -1.5428830435482155E-010
   2.3411111111111111         -2.5990543051079840E-010
   2.3511111111111114         -3.4376898550014801E-010
   2.3611111111111112         -3.8814174097012710E-010
   2.3711111111111114         -3.7941677577535415E-010
   2.3811111111111112         -3.1036676007012431E-010
   2.3911111111111114         -1.8130712209352140E-010
   2.4011111111111112          4.8538708046375750E-014
   2.4111111111111114          2.2003446287222062E-010
   2.4211111111111112          4.6157530575463568E-010
   2.4311111111111114          7.0757355530304267E-010
   2.4411111111111112          9.4509378101292896E-010
   2.4511111111111110          1.1710606928616585E-009
   2.4611111111111112          1.4013377125365878E-009
   2.4711111111111110          1.6860534080009870E-009
   2.4811111111111113          2.1341317602008303E-009
   2.4911111111111111          2.9485553998398473E-009
   2.5011111111111113          4.4715613434220813E-009
   2.5111111111111111          7.2370900383589287E-009
   2.5211111111111113          1.2028163354216304E-008
   2.5311111111111111          1.9941362339181978E-008
   2.5411111111111113          3.2467529109680981E-008
   2.5511111111111111          5.1605582029878860E-008
   2.5611111111111113          8.0034546101614978E-008
   2.5711111111111111          1.2137401483869326E-007
   2.5811111111111114          1.8056863382298616E-007
   2.5911111111111111          2.6443410661158850E-007
   2.6011111111111114          3.8240327171479294E-007
   2.6111111111111112          5.4751785683038179E-007
   2.6211111111111114          7.7770903317286866E-007
   2.6311111111111112          1.0974155202347902E-006
   2.6411111111111114          1.5396051367133623E-006
   2.6511111111111112          2.1482887859747279E-006
   2.6611111111111114          2.9816310416208580E-006
   2.6711111111111112          4.1157913983624894E-006
   2.6811111111111114          5.6496710385545157E-006
   2.6911111111111112          7.7107224569772370E-006
   2.7011111111111110          1.0462013051437680E-005
   2.7111111111111112          1.4110748452367261E-005
   2.7211111111111110          1.8918442947324365E-005
   2.7311111111111113          2.5212955733877607E-005
   2.7411111111111111          3.3402568078599870E-005
   2.7511111111111113          4.3992229620926082E-005
   2.7611111111111111          5.7601973821874708E-005
   2.7711111111111113          7.4987394327763468E-005
   2.7811111111111111          9.7061929409392178E-005
   2.7911111111111113          1.2492069799918681E-004
   2.8011111111111111          1.5986524522304535E-004
   2.8111111111111113          2.0342809148132801E-004
   2.8211111111111111          2.5739654665812850E-004
   2.8311111111111114          3.2383424695581198E-004
   2.8411111111111111          4.0509831160306931E-004
   2.8511111111111114          5.0385104259476066E-004
   2.8611111111111112          6.2306423205882311E-004
   2.8711111111111114          7.6601241016760468E-004
   2.8811111111111112          9.3625352019444108E-004
   2.8911111111111114          1.1375936446711421E-003
   2.9011111111111112          1.3740330468863249E-003
   2.9111111111111114          1.6496900934726000E-003
   2.9211111111111112          1.9687016028910875E-003
   2.9311111111111114          2.3350974079221487E-003
   2.9411111111111112          2.7526468038558960E-003
   2.9511111111111110          3.2246785704046488E-003
   2.9611111111111112          3.7538746837526560E-003
   2.9711111111111110          4.3420409783720970E-003
   2.9811111111111113          4.9898559227585793E-003
   2.9911111111111111          5.6966072879731655E-003
   3.0011111111111113          6.4599243924021721E-003
   3.0111111111111111          7.2755143046379089E-003
   3.0211111111111113          8.1369122490286827E-003
   3.0311111111111111          9.0352641418576241E-003
   3.0411111111111113          9.9591510370373726E-003
   3.0511111111111111          1.0894474573433399E-002
   3.0611111111111113          1.1824416927993298E-002
   3.0711111111111111          1.2729489244520664E-002
   3.0811111111111114          1.3587678782641888E-002
   3.0911111111111111          1.4374711550772190E-002
   3.1011111111111114          1.5064437873661518E-002
   3.1111111111111112          1.5629334375262260E-002
   3.1211111111111109          1.6041116788983345E-002
   3.1311111111111116          1.6271466389298439E-002
   3.1411111111111114          1.6292866319417953E-002
   3.1511111111111112          1.6079492866992950E-002
   3.1611111111111110          1.5608169138431549E-002
   3.1711111111111117          1.4859328046441078E-002
   3.1811111111111114          1.3817970640957355E-002
   3.1911111111111112          1.2474561110138893E-002
   3.2011111111111110          1.0825837962329388E-002
   3.2111111111111108          8.8754920288920403E-003
   3.2211111111111115          6.6346763633191586E-003
   3.2311111111111113          4.1223084554076195E-003
   3.2411111111111111          1.3651353074237704E-003
   3.2511111111111108         -1.6024368815124035E-003
   3.2611111111111115         -4.7387839294970036E-003
   3.2711111111111113         -7.9957600682973862E-003
   3.2811111111111111         -1.1319653131067753E-002
   3.2911111111111109         -1.4652379788458347E-002
   3.3011111111111116         -1.7932875081896782E-002
   3.3111111111111113         -2.1098656579852104E-002
   3.3211111111111111         -2.4087484925985336E-002
   3.3311111111111109         -2.6839058846235275E-002
   3.3411111111111116         -2.9296724125742912E-002
   3.3511111111111114         -3.1409118324518204E-002
   3.3611111111111112         -3.3131662756204605E-002
   3.3711111111111109         -3.4427884966135025E-002
   3.3811111111111116         -3.5270493477582932E-002
   3.3911111111111114         -3.5642180591821671E-002
   3.4011111111111112         -3.5536084324121475E-002
   3.4111111111111110         -3.4955974668264389E-002
   3.4211111111111117         -3.3916063606739044E-002
   3.4311111111111114         -3.2440546900033951E-002
   3.4411111111111112         -3.0562821775674820E-002
   3.4511111111111110         -2.8324419632554054E-002
   3.4611111111111117         -2.5773717090487480E-002
   3.4711111111111115         -2.2964488714933395E-002
   3.4811111111111113         -1.9954338669776917E-002
   3.4911111111111111         -1.6803091391921043E-002
   3.5011111111111108         -1.3571166433393955E-002
   3.5111111111111115         -1.0317984037101269E-002
   3.5211111111111113         -7.1004726924002171E-003
   3.5311111111111111         -3.9717443287372589E-003
   3.5411111111111109         -9.7995600663125515E-004
   3.5511111111111116          1.8326111603528261E-003
   3.5611111111111113          4.4302423484623432E-003
   3.5711111111111111          6.7842602729797363E-003
   3.5811111111111109          8.8732801377773285E-003
   3.5911111111111116          1.0683223605155945E-002
   3.6011111111111114          1.2207111343741417E-002
   3.6111111111111112          1.3444663025438786E-002
   3.6211111111111109          1.4401743188500404E-002
   3.6311111111111116          1.5089691616594791E-002
   3.6411111111111114          1.5524550341069698E-002
   3.6511111111111112          1.5726231038570404E-002
   3.6611111111111110          1.5717633068561554E-002
   3.6711111111111117          1.5523759648203850E-002
   3.6811111111111114          1.5170844271779060E-002
   3.6911111111111112          1.4685557223856449E-002
   3.7011111111111110          1.4094280079007149E-002
   3.7111111111111117          1.3422464951872826E-002
   3.7211111111111115          1.2694084085524082E-002
   3.7311111111111113          1.1931181885302067E-002
   3.7411111111111111          1.1153509840369225E-002
   3.7511111111111108          1.0378267616033554E-002
   3.7611111111111115          9.6199586987495422E-003
   3.7711111111111113          8.8903354480862617E-003
   3.7811111111111111          8.1983925774693489E-003
   3.7911111111111109          7.5504519045352936E-003
   3.8011111111111116          6.9503053091466427E-003
   3.8111111111111113          6.3994103111326694E-003
   3.8211111111111111          5.8971219696104527E-003
   3.8311111111111109          5.4409713484346867E-003
   3.8411111111111116          5.0269532948732376E-003
   3.8511111111111114          4.6498058363795280E-003
   3.8611111111111112          4.3032942339777946E-003
   3.8711111111111109          3.9805164560675621E-003
   3.8811111111111116          3.6742065567523241E-003
   3.8911111111111114          3.3770368900150061E-003
   3.9011111111111112          3.0819361563771963E-003
   3.9111111111111110          2.7824048884212971E-003
   3.9211111111111117          2.4728118441998959E-003
   3.9311111111111114          2.1486792247742414E-003
   3.9411111111111112          1.8069538054987788E-003
   3.9511111111111110          1.4462064718827605E-003
   3.9611111111111117          1.0667266324162483E-003
   3.9711111111111115          6.7049585049971938E-004
   3.9811111111111113          2.6101549156010151E-004
   3.9911111111111111         -1.5701804659329355E-004
   4.0011111111111113         -5.7814555475488305E-004
   4.0111111111111111         -9.9662761203944683E-004
   4.0211111111111109         -1.4069369062781334E-003
   4.0311111111111106         -1.8041918519884348E-003
   4.0411111111111104         -2.1844333969056606E-003
   4.0511111111111120         -2.5446757208555937E-003
   4.0611111111111118         -2.8827001806348562E-003
   4.0711111111111116         -3.1965770758688450E-003
   4.0811111111111114         -3.4839643631130457E-003
   4.0911111111111111         -3.7413192912936211E-003
   4.1011111111111109         -3.9631868712604046E-003
   4.1111111111111107         -4.1417246684432030E-003
   4.1211111111111105         -4.2666378431022167E-003
   4.1311111111111121         -4.3256813660264015E-003
   4.1411111111111119         -4.3058004230260849E-003
   4.1511111111111116         -4.1948813013732433E-003
   4.1611111111111114         -3.9840098470449448E-003
   4.1711111111111112         -3.6699913907796144E-003
   4.1811111111111110         -3.2577689271420240E-003
   4.1911111111111108         -2.7623197529464960E-003
   4.2011111111111106         -2.2096498869359493E-003
   4.2111111111111121         -1.6365370247513056E-003
   4.2211111111111119         -1.0887965327128768E-003
   4.2311111111111117         -6.1803974676877260E-004
   4.2411111111111115         -2.7710385620594025E-004
   4.2511111111111113         -1.1451136379037052E-004
   4.2611111111111111         -1.6851835243869573E-004
   4.2711111111111109         -4.6148124965839088E-004
   4.2811111111111106         -9.9529651924967766E-004
   4.2911111111111104         -1.7485799035057425E-003
   4.3011111111111120         -2.6761260814964771E-003
   4.3111111111111118         -3.7109483964741230E-003
   4.3211111111111116         -4.7688600607216358E-003
   4.3311111111111114         -5.7552387006580830E-003
   4.3411111111111111         -6.5733743831515312E-003
   4.3511111111111109         -7.1335299871861935E-003
   4.3611111111111107         -7.3616844601929188E-003
   4.3711111111111105         -7.2069740854203701E-003
   4.3811111111111121         -6.6469600424170494E-003
   4.3911111111111119         -5.6901089847087860E-003
   4.4011111111111116         -4.3751690536737442E-003
   4.4111111111111114         -2.7675589080899954E-003
   4.4211111111111112         -9.5321692060679197E-004
   4.4311111111111110          9.6938648493960500E-004
   4.4411111111111108          2.8981536161154509E-003
   4.4511111111111106          4.7361529432237148E-003
   4.4611111111111121          6.3993548974394798E-003
   4.4711111111111119          7.8225582838058472E-003
   4.4811111111111117          8.9629776775836945E-003
   4.4911111111111115          9.8012788221240044E-003
   4.5011111111111113          1.0340211912989616E-002
   4.5111111111111111          1.0601258836686611E-002
   4.5211111111111109          1.0619867593050003E-002
   4.5311111111111106          1.0439939796924591E-002
   4.5411111111111104          1.0108331218361855E-002
   4.5511111111111120          9.6699465066194534E-003