 -0.88888888888888884          0.0000000000000000     
 -0.87888888888888883          0.0000000000000000     
 -0.86888888888888882          0.0000000000000000     
 -0.85888888888888881          0.0000000000000000     
 -0.84888888888888880          0.0000000000000000     
 -0.83888888888888880          0.0000000000000000     
 -0.82888888888888879          0.0000000000000000     
 -0.81888888888888878          0.0000000000000000     
 -0.80888888888888888          0.0000000000000000     
 -0.79888888888888887          0.0000000000000000     
 -0.78888888888888886          0.0000000000000000     
 -0.77888888888888885          0.0000000000000000     
 -0.76888888888888884          0.0000000000000000     
 -0.75888888888888884          0.0000000000000000     
 -0.74888888888888883          0.0000000000000000     
 -0.73888888888888882          0.0000000000000000     
 -0.72888888888888881          0.0000000000000000     
 -0.71888888888888880          0.0000000000000000     
 -0.70888888888888890          0.0000000000000000     
 -0.69888888888888889          0.0000000000000000     
 -0.68888888888888888          0.0000000000000000     
 -0.67888888888888888          0.0000000000000000     
 -0.66888888888888887          0.0000000000000000     
 -0.65888888888888886          0.0000000000000000     
 -0.64888888888888885          0.0000000000000000     
 -0.63888888888888884          0.0000000000000000     
 -0.62888888888888883          0.0000000000000000     
 -0.61888888888888882          0.0000000000000000     
 -0.60888888888888881          0.0000000000000000     
 -0.59888888888888880          0.0000000000000000     
 -0.58888888888888880          0.0000000000000000     
 -0.57888888888888879          0.0000000000000000     
 -0.56888888888888878          0.0000000000000000     
 -0.55888888888888877          0.0000000000000000     
 -0.54888888888888876          0.0000000000000000     
 -0.53888888888888875          0.0000000000000000     
 -0.52888888888888885          0.0000000000000000     
 -0.51888888888888884          0.0000000000000000     
 -0.50888888888888884          0.0000000000000000     
 -0.49888888888888883          0.0000000000000000     
 -0.48888888888888882          0.0000000000000000     
 -0.47888888888888881          0.0000000000000000     
 -0.46888888888888886          0.0000000000000000     
 -0.45888888888888885          0.0000000000000000     
 -0.44888888888888884          0.0000000000000000     
 -0.43888888888888883          0.0000000000000000     
 -0.42888888888888882          0.0000000000000000     
 -0.41888888888888881          0.0000000000000000     
 -0.40888888888888886          0.0000000000000000     
 -0.39888888888888885          0.0000000000000000     
 -0.38888888888888884          0.0000000000000000     
 -0.37888888888888883          0.0000000000000000     
 -0.36888888888888882          0.0000000000000000     
 -0.35888888888888881          0.0000000000000000     
 -0.34888888888888880          0.0000000000000000     
 -0.33888888888888880         -2.9358520048161383E-038
 -0.32888888888888879         -8.0420031215735667E-038
 -0.31888888888888878         -3.4372288601840348E-037
 -0.30888888888888888          2.5467839524816500E-037
 -0.29888888888888887          2.2103772569558742E-036
 -0.28888888888888886          4.2157210067668269E-037
 -0.27888888888888885         -6.5623313793855883E-036
 -0.26888888888888884         -9.6366759983500421E-036
 -0.25888888888888884         -1.0099025749813924E-036
 -0.24888888888888883          2.5271541510511201E-035
 -0.23888888888888882          6.1375866134293318E-035
 -0.22888888888888881          5.2547662491440525E-035
 -0.21888888888888880         -8.4717642535303356E-035
 -0.20888888888888879         -3.3459020950078561E-034
 -0.19888888888888878         -4.2703487346366682E-034
 -0.18888888888888877          1.0753178957257467E-034
 -0.17888888888888888          1.4433800543185826E-033
 -0.16888888888888887          2.6315878357224939E-033
 -0.15888888888888886          1.3121534669580480E-033
 -0.14888888888888885         -4.5952439856024249E-033
 -0.13888888888888884         -1.2863026196761381E-032
 -0.12888888888888883         -1.3672261487122399E-032
 -0.11888888888888882          6.3510453672791203E-033
 -0.10888888888888881          4.8240087044574765E-032
  -9.8888888888888804E-002     8.0504347750598542E-032
  -8.8888888888888795E-002     3.9627680746481422E-032
  -7.8888888888888786E-002    -1.2051690004121857E-031
  -6.8888888888888777E-002    -3.3677790899646052E-031
  -5.8888888888888768E-002    -3.7931524095102244E-031
  -4.8888888888888871E-002     4.5337159664180970E-032
  -3.8888888888888862E-002     9.7310234143556127E-031
  -2.8888888888888853E-002     1.8148220302684171E-030
  -1.8888888888888844E-002     1.3760128102928992E-030
  -8.8888888888888351E-003    -1.3219695045336185E-030
   1.1111111111111738E-003    -5.5821725268571884E-030
   1.1111111111111183E-002    -8.0657231370372138E-030
   2.1111111111111192E-002    -3.9830273788912026E-030
   3.1111111111111200E-002     8.8696145713046758E-030
   4.1111111111111209E-002     2.5217442083896547E-029
   5.1111111111111218E-002     3.1234990634908468E-029
   6.1111111111111227E-002     1.1567226276272266E-029
   7.1111111111111125E-002    -3.6692281651199835E-029
   8.1111111111111134E-002    -9.2184913640524550E-029
   9.1111111111111143E-002    -1.1227191758918378E-028
  0.10111111111111115         -5.6035768307766220E-029
  0.11111111111111116          8.3772234976322360E-029
  0.12111111111111117          2.6260415903584533E-028
  0.13111111111111118          3.9464326786936069E-028
  0.14111111111111119          3.8112954708033016E-028
  0.15111111111111120          1.2960748987104280E-028
  0.16111111111111120         -4.3710361942603416E-028
  0.17111111111111121         -1.3249809645786172E-027
  0.18111111111111122         -2.2933788888488543E-027
  0.19111111111111123         -2.6092970739394646E-027
  0.20111111111111124         -1.0258924220105376E-027
  0.21111111111111125          3.5707257318164448E-027
  0.22111111111111126          1.0688498271969082E-026
  0.23111111111111127          1.6625658037656856E-026
  0.24111111111111128          1.4406929734196406E-026
  0.25111111111111128         -2.9875678187585950E-027
  0.26111111111111129         -3.6066883905563944E-026
  0.27111111111111108         -7.2152737450708124E-026
  0.28111111111111109         -8.4506120500170330E-026
  0.29111111111111110         -4.2460410490129761E-026
  0.30111111111111111          6.7889936497095904E-026
  0.31111111111111112          2.2140729764137558E-025
  0.32111111111111112          3.4492124637599574E-025
  0.33111111111111113          3.3436507952087749E-025
  0.34111111111111114          9.9972558222812597E-026
  0.35111111111111115         -3.7309127208621177E-025
  0.36111111111111116         -9.7202099677794199E-025
  0.37111111111111117         -1.4382409472071809E-024
  0.38111111111111118         -1.4085919059072886E-024
  0.39111111111111119         -5.3516949968536960E-025
  0.40111111111111120          1.3135005416320716E-024
  0.41111111111111120          3.8105642036775096E-024
  0.42111111111111121          6.0013820043396092E-024
  0.43111111111111122          6.3849869187477671E-024
  0.44111111111111123          3.4069454936734419E-024
  0.45111111111111124         -3.6432897985994675E-024
  0.46111111111111125         -1.3630748091697399E-023
  0.47111111111111126         -2.3034058434353244E-023
  0.48111111111111127         -2.6448745414520073E-023
  0.49111111111111128         -1.8369736894225811E-023
  0.50111111111111128          4.1108902556128431E-024
  0.51111111111111129          3.8591230100149321E-023
  0.52111111111111108          7.5730596414119199E-023
  0.53111111111111109          9.9665191636601973E-023
  0.54111111111111110          9.1192756094768647E-023
  0.55111111111111111          3.4198212024823688E-023
  0.56111111111111112         -7.4911960742891525E-023
  0.57111111111111112         -2.1687429639563371E-022
  0.58111111111111113         -3.4345670953937393E-022
  0.59111111111111114         -3.8303114747279813E-022
  0.60111111111111115         -2.6365273833328103E-022
  0.61111111111111116          4.8459201604085688E-023
  0.62111111111111117          5.0935024515726281E-022
  0.63111111111111118          9.8007523506581231E-022
  0.64111111111111119          1.2521271837162604E-021
  0.65111111111111120          1.1176120862838136E-021
  0.66111111111111120          4.6091928477358404E-022
  0.67111111111111121         -6.6700514467296416E-022
  0.68111111111111122         -2.0239124436481817E-021
  0.69111111111111123         -3.2081162043135652E-021
  0.70111111111111124         -3.7321137158363842E-021
  0.71111111111111125         -3.1251218776583668E-021
  0.72111111111111126         -1.0737375864886914E-021
  0.73111111111111127          2.3828785372374352E-021
  0.74111111111111128          6.6331290203200511E-021
  0.75111111111111128          1.0372218841400584E-020
  0.76111111111111129          1.1772545145573362E-020
  0.77111111111111130          9.0768758125688499E-021
  0.78111111111111109          1.5178685480475281E-021
  0.79111111111111110         -9.8283766692153780E-021
  0.80111111111111111         -2.1795627529404078E-020
  0.81111111111111112         -2.9849041817349016E-020
  0.82111111111111112         -2.9654176159607423E-020
  0.83111111111111113         -1.8865643939816149E-020
  0.84111111111111114          1.6651435526634589E-021
  0.85111111111111115          2.7750555689135876E-020
  0.86111111111111116          5.2709386504428088E-020
  0.87111111111111117          6.8728246360877511E-020
  0.88111111111111118          6.8392992643549183E-020
  0.89111111111111119          4.6461781810694568E-020
  0.90111111111111120          2.1124641880955790E-021
  0.91111111111111120         -5.8625443637718430E-020
  0.92111111111111121         -1.2150951033689248E-019
  0.93111111111111122         -1.6557631669973620E-019
  0.94111111111111123         -1.6852743863138398E-019
  0.95111111111111124         -1.1509990749006928E-019
  0.96111111111111125         -5.4766687277630470E-021
  0.97111111111111126          1.3993908145987687E-019
  0.98111111111111127          2.8200091516671794E-019
  0.99111111111111128          3.7112086322469244E-019
   1.0011111111111113          3.6117489523814312E-019
   1.0111111111111113          2.2654902749724163E-019
   1.0211111111111113         -2.1678964366878557E-020
   1.0311111111111111         -3.2681849133303010E-019
   1.0411111111111111         -5.9288687392621104E-019
   1.0511111111111111         -7.1142345836749673E-019
   1.0611111111111111         -6.0492933117527601E-019
   1.0711111111111111         -2.7073430163343943E-019
   1.0811111111111111          1.9811731765423675E-019
   1.0911111111111111          6.3293141116293910E-019
   1.1011111111111112          8.5083373877140493E-019
   1.1111111111111112          7.3827105271397721E-019
   1.1211111111111114          3.2571358482981240E-019
   1.1311111111111112         -1.7904845224002251E-019
   1.1411111111111114         -4.3084407893284531E-019
   1.1511111111111112         -8.8559927396230492E-020
   1.1611111111111110          9.4151196585645862E-019
   1.1711111111111112          2.2395302971219935E-018
   1.1811111111111110          2.7780106070284480E-018
   1.1911111111111112          1.2483199758948536E-018
   1.2011111111111110         -3.0945047986422623E-018
   1.2111111111111112         -9.3722218652024331E-018
   1.2211111111111110         -1.4563965558790470E-017
   1.2311111111111113         -1.4353959290514282E-017
   1.2411111111111111         -5.5100109468448589E-018
   1.2511111111111113          1.1284085242176858E-017
   1.2611111111111111          3.0182798156822864E-017
   1.2711111111111113          4.2157488220614120E-017
   1.2811111111111111          3.9743249106314802E-017
   1.2911111111111113          2.1532783548537417E-017
   1.3011111111111111         -7.3001559374530251E-018
   1.3111111111111113         -3.9411589385350440E-017
   1.3211111111111111         -7.0684912683261164E-017
   1.3311111111111114         -9.9950258352921864E-017
   1.3411111111111111         -1.2017912566902867E-016
   1.3511111111111114         -1.0815955609392273E-016
   1.3611111111111112         -2.7850201768982530E-017
   1.3711111111111114          1.4160135652869837E-016
   1.3811111111111112          3.6269185824798651E-016
   1.3911111111111114          5.1613110901949457E-016
   1.4011111111111112          4.3834288539633024E-016
   1.4111111111111114          2.9326232780189503E-017
   1.4211111111111112         -6.2138368774310995E-016
   1.4311111111111110         -1.1921213697457540E-015
   1.4411111111111112         -1.2542910469753778E-015
   1.4511111111111110         -5.4721324771678714E-016
   1.4611111111111112          7.5304839488844972E-016
   1.4711111111111110          1.9922238212827193E-015
   1.4811111111111113          2.3485697351596562E-015
   1.4911111111111111          1.3775501167895212E-015
   1.5011111111111113         -5.6487960213943327E-016
   1.5111111111111111         -2.3982878163064051E-015
   1.5211111111111113         -2.9788166697837168E-015
   1.5311111111111111         -1.9636527646971214E-015
   1.5411111111111113         -2.0101556940645501E-016
   1.5511111111111111          8.3473990515123947E-016
   1.5611111111111113          3.4804967614483426E-016
   1.5711111111111111         -7.0443240948519711E-016
   1.5811111111111114          9.2116864569489592E-017
   1.5911111111111111          4.6173739541599014E-015
   1.6011111111111114          1.1632005309045873E-014
   1.6111111111111112          1.5774463983306286E-014
   1.6211111111111114          9.9158233842844626E-015
   1.6311111111111112         -9.4530731915734405E-015
   1.6411111111111114         -3.6863886915912067E-014
   1.6511111111111112         -5.6979411694555587E-014
   1.6611111111111114         -5.0997458345006588E-014
   1.6711111111111112         -8.7351839696552143E-015
   1.6811111111111110          6.0126091659760267E-014
   1.6911111111111112          1.2403207801103822E-013
   1.7011111111111110          1.4167036684401002E-013
   1.7111111111111112          8.5006322456376154E-014
   1.7211111111111110         -3.8384012900636102E-014
   1.7311111111111113         -1.7843339924095841E-013
   1.7411111111111111         -2.6020491642429755E-013
   1.7511111111111113         -2.2196944260942375E-013
   1.7611111111111111         -5.5740388839970942E-014
   1.7711111111111113          1.7395283889547197E-013
   1.7811111111111111          3.5008625230530110E-013
   1.7911111111111113          3.5970236663372679E-013
   1.8011111111111111          1.6225313193701796E-013
   1.8111111111111113         -1.6810852839985180E-013
   1.8211111111111111         -4.5796515451418385E-013
   1.8311111111111114         -5.1332522217270582E-013
   1.8411111111111111         -2.3149613736367369E-013
   1.8511111111111114          3.1080891441277736E-013
   1.8611111111111112          8.5089455013204196E-013
   1.8711111111111114          1.0409130155042412E-012
   1.8811111111111112          6.2743262191702898E-013
   1.8911111111111114         -3.7104477476623821E-013
   1.9011111111111112         -1.5894397343424460E-012
   1.9111111111111114         -2.4141220706513922E-012
   1.9211111111111112         -2.2460670476287525E-012
   1.9311111111111110         -8.2938446692090717E-013
   1.9411111111111112          1.5147187974393073E-012
   1.9511111111111110          3.8965397748669250E-012
   1.9611111111111112          5.1631992951939321E-012
   1.9711111111111110          4.4116017262896268E-012
   1.9811111111111113          1.4928804720204525E-012
   1.9911111111111111         -2.7486190407044475E-012
   2.0011111111111113         -6.6754943586766480E-012
   2.0111111111111111         -8.4828845337003855E-012
   2.0211111111111113         -7.0215413344731914E-012
   2.0311111111111111         -2.4527005860336404E-012
   2.0411111111111113          3.6113531869802484E-012
   2.0511111111111111          8.6353736661326508E-012
   2.0611111111111113          1.0215737977770090E-011
   2.0711111111111111          7.2452790295107761E-012
   2.0811111111111114          6.5314610274078144E-013
   2.0911111111111111         -6.7017424595916530E-012
   2.1011111111111114         -1.1078206060832763E-011
   2.1111111111111112         -9.5143302958344833E-012
   2.1211111111111114         -1.4370258455409513E-012
   2.1311111111111112          1.0538489352007741E-011
   2.1411111111111114          2.1142334410972907E-011
   2.1511111111111112          2.4329734407690928E-011
   2.1611111111111114          1.5914786849480222E-011
   2.1711111111111112         -4.0799677004932366E-012
   2.1811111111111114         -3.0456550476065658E-011
   2.1911111111111112         -5.3935855781617192E-011
   2.2011111111111110         -6.4199846827595053E-011
   2.2111111111111112         -5.3898569635224547E-011
   2.2211111111111110         -2.2071452304706085E-011
   2.2311111111111113          2.4531314479769861E-011
   2.2411111111111111          7.3030657909978203E-011
   2.2511111111111113          1.0855726040315261E-010
   2.2611111111111111          1.1947152989133514E-010
   2.2711111111111113          1.0158876517785131E-010
   2.2811111111111111          5.9588264877952213E-011
   2.2911111111111113          4.8729930680890821E-012
   2.3011111111111111         -4.9329249018903454E-011
   2.3111111111111113         -9.3506327680792367E-011
   2.3211111111111111         -1.2541294391876789E-010
   2.3311111111111114         -1.4965136074795993E-010
   2.3411111111111111         -1.7299228716183279E-010
   2.3511111111111114         -1.9726936750785740E-010
   2.3611111111111112         -2.1334022048957735E-010
   2.3711111111111114         -1.9997561939710806E-010
   2.3811111111111112         -1.3019402222980148E-010
   2.3911111111111114          1.5224529970048195E-011
   2.4011111111111112          2.3049413766518256E-010
   2.4111111111111114          4.6955633825618293E-010
   2.4211111111111112          6.3884647572010067E-010
   2.4311111111111114          6.0209121022225531E-010
   2.4411111111111112          1.9690034325225980E-010
   2.4511111111111110         -7.4208073019832455E-010
   2.4611111111111112         -2.3632635848258587E-009
   2.4711111111111110         -4.7945833969720297E-009
   2.4811111111111113         -8.1703444010372550E-009
   2.4911111111111111         -1.2699994833553774E-008
   2.5011111111111113         -1.8785241806540398E-008
   2.5111111111111111         -2.7185524942296979E-008
   2.5211111111111113         -3.9224936188020365E-008
   2.5311111111111111         -5.7030742794950129E-008
   2.5411111111111113         -8.3798560979175818E-008
   2.5511111111111111         -1.2409414296143950E-007
   2.5611111111111113         -1.8422319669753051E-007
   2.5711111111111111         -2.7272758984508982E-007
   2.5811111111111114         -4.0109114252118161E-007
   2.5911111111111111         -5.8476200592849636E-007
   2.6011111111111114         -8.4460583593681804E-007
   2.6111111111111112         -1.2089066103726509E-006
   2.6211111111111114         -1.7160367633550777E-006
   2.6311111111111112         -2.4179114461730933E-006
   2.6411111111111114         -3.3843487017293228E-006
   2.6511111111111112         -4.7084822654142044E-006
   2.6611111111111114         -6.5134227043017745E-006
   2.6711111111111112         -8.9604245658847503E-006
   2.6811111111111114         -1.2258882634341717E-005
   2.6911111111111112         -1.6678577594575472E-005
   2.7011111111111110         -2.2564627215615474E-005
   2.7111111111111112         -3.0355611670529470E-005
   2.7211111111111110         -4.0605333197163418E-005
   2.7311111111111113         -5.4008687584428117E-005
   2.7411111111111111         -7.1431742981076241E-005
   2.7511111111111113         -9.3946400738786906E-005
   2.7611111111111111         -1.2286943092476577E-004
   2.7711111111111113         -1.5980569878593087E-004
   2.7811111111111111         -2.0669514196924865E-004
   2.7911111111111113         -2.6586253079585731E-004
   2.8011111111111111         -3.4006868372671306E-004
   2.8111111111111113         -4.3256211210973561E-004
   2.8211111111111111         -5.4712913697585464E-004
   2.8311111111111114         -6.8813923280686140E-004
   2.8411111111111111         -8.6058274609968066E-004
   2.8511111111111114         -1.0700986022129655E-003
   2.8611111111111112         -1.3229856267571449E-003
   2.8711111111111114         -1.6261901473626494E-003
   2.8811111111111112         -1.9872686825692654E-003
   2.8911111111111114         -2.4143171031028032E-003
   2.9011111111111112         -2.9158559627830982E-003
   2.9111111111111114         -3.5006678663194180E-003
   2.9211111111111112         -4.1775829158723354E-003
   2.9311111111111114         -4.9552139826118946E-003
   2.9411111111111112         -5.8416207320988178E-003
   2.9511111111111110         -6.8439217284321785E-003
   2.9611111111111112         -7.9678585752844810E-003
   2.9711111111111110         -9.2172957956790924E-003
   2.9811111111111113         -1.0593691840767860E-002
   2.9911111111111111         -1.2095557525753975E-002
   3.0011111111111113         -1.3717851601541042E-002
   3.0111111111111111         -1.5451457351446152E-002
   3.0211111111111113         -1.7282664775848389E-002
   3.0311111111111111         -1.9192673265933990E-002
   3.0411111111111113         -2.1157229319214821E-002
   3.0511111111111111         -2.3146394640207291E-002
   3.0611111111111113         -2.5124462321400642E-002
   3.0711111111111111         -2.7049992233514786E-002
   3.0811111111111114         -2.8876185417175293E-002
   3.0911111111111111         -3.0551418662071228E-002
   3.1011111111111114         -3.2020047307014465E-002
   3.1111111111111112         -3.3223453909158707E-002
   3.1211111111111109         -3.4101407974958420E-002
   3.1311111111111116         -3.4593608230352402E-002
   3.1411111111111114         -3.4641440957784653E-002
   3.1511111111111112         -3.4189872443675995E-002
   3.1611111111111110         -3.3189531415700912E-002
   3.1711111111111117         -3.1598750501871109E-002
   3.1811111111111114         -2.9385527595877647E-002
   3.1911111111111112         -2.6529535651206970E-002
   3.2011111111111110         -2.3023836314678192E-002
   3.2111111111111108         -1.8876232206821442E-002
   3.2211111111111115         -1.4110398478806019E-002
   3.2311111111111113         -8.7666008621454239E-003
   3.2411111111111111         -2.9017962515354156E-003
   3.2511111111111108          3.4107775427401066E-003
   3.2611111111111115          1.0082445107400417E-002
   3.2711111111111113          1.7010601237416267E-002
   3.2811111111111111          2.4080822244286537E-002
   3.2911111111111109          3.1169392168521881E-002
   3.3011111111111116          3.8146220147609711E-002
   3.3111111111111113          4.4878218322992325E-002
   3.3211111111111111          5.1232889294624329E-002
   3.3311111111111109          5.7081893086433411E-002
   3.3411111111111116          6.2304683029651642E-002
   3.3511111111111114          6.6792093217372894E-002
   3.3611111111111112          7.0449389517307281E-002
   3.3711111111111109          7.3198951780796051E-002
   3.3811111111111116          7.4982859194278717E-002
   3.3911111111111114          7.5764335691928864E-002
   3.4011111111111112          7.5528770685195923E-002
   3.4111111111111110          7.4284195899963379E-002
   3.4211111111111117          7.2061039507389069E-002
   3.4311111111111114          6.8911001086235046E-002
   3.4411111111111112          6.4905352890491486E-002
   3.4511111111111110          6.0132883489131927E-002
   3.4611111111111117          5.4697152227163315E-002
   3.4711111111111115          4.8713307827711105E-002
   3.4811111111111113          4.2304635047912598E-002
   3.4911111111111111          3.5599213093519211E-002
   3.5011111111111108          2.8726303949952126E-002
   3.5111111111111115          2.1812815219163895E-002
   3.5211111111111113          1.4980204403400421E-002
   3.5311111111111111          8.3417519927024841E-003
   3.5411111111111109          2.0000189542770386E-003
   3.5511111111111116         -3.9551774971187115E-003
   3.5611111111111113         -9.4480318948626518E-003
   3.5711111111111111         -1.4417670667171478E-002
   3.5811111111111109         -1.8818771466612816E-002
   3.5911111111111116         -2.2621506825089455E-002
   3.6011111111111114         -2.5810923427343369E-002
   3.6111111111111112         -2.8386183083057404E-002
   3.6211111111111109         -3.0359597876667976E-002
   3.6311111111111116         -3.1754963099956512E-002
   3.6411111111111114         -3.2605860382318497E-002
   3.6511111111111112         -3.2953977584838867E-002
   3.6611111111111110         -3.2847277820110321E-002
   3.6711111111111117         -3.2337889075279236E-002
   3.6811111111111114         -3.1480312347412109E-002
   3.6911111111111112         -3.0329907312989235E-002
   3.7011111111111110         -2.8941338881850243E-002
   3.7111111111111117         -2.7367202565073967E-002
   3.7211111111111115         -2.5657113641500473E-002
   3.7311111111111113         -2.3857099935412407E-002
   3.7411111111111111         -2.2008955478668213E-002
   3.7511111111111108         -2.0149817690253258E-002
   3.7611111111111115         -1.8312131986021996E-002
   3.7711111111111113         -1.6523620113730431E-002
   3.7811111111111111         -1.4807031489908695E-002
   3.7911111111111109         -1.3180238194763660E-002
   3.8011111111111116         -1.1656504124403000E-002
   3.8111111111111113         -1.0244581848382950E-002
   3.8211111111111111         -8.9489063248038292E-003
   3.8311111111111109         -7.7701993286609650E-003
   3.8411111111111116         -6.7062024027109146E-003
   3.8511111111111114         -5.7522645220160484E-003
   3.8611111111111112         -4.9021840095520020E-003
   3.8711111111111109         -4.1492739692330360E-003
   3.8811111111111116         -3.4871282987296581E-003
   3.8911111111111114         -2.9100561514496803E-003
   3.9011111111111112         -2.4134446866810322E-003
   3.9111111111111110         -1.9938081968575716E-003
   3.9211111111111117         -1.6481926431879401E-003
   3.9311111111111114         -1.3732353691011667E-003
   3.9411111111111112         -1.1642652098089457E-003
   3.9511111111111110         -1.0143450926989317E-003
   3.9611111111111117         -9.1336766490712762E-004
   3.9711111111111115         -8.4780220640823245E-004
   3.9811111111111113         -8.0138852354139090E-004
   3.9911111111111111         -7.5656495755538344E-004
   4.0011111111111113         -6.9661223096773028E-004
   4.0111111111111111         -6.0862390091642737E-004
   4.0211111111111109         -4.8679226893000305E-004
   4.0311111111111106         -3.3510490902699530E-004
   4.0411111111111104         -1.6892823623493314E-004
   4.0511111111111120         -1.5096024981176015E-005
   4.0611111111111118          9.0228328190278262E-005
   4.0711111111111116          1.0634736099746078E-004
   4.0811111111111114         -5.0206895139126573E-006
   4.0911111111111111         -2.7150230016559362E-004
   4.1011111111111109         -7.0135202258825302E-004
   4.1111111111111107         -1.2756778160110116E-003
   4.1211111111111105         -1.9436643924564123E-003
   4.1311111111111121         -2.6223605964332819E-003
   4.1411111111111119         -3.2017561607062817E-003
   4.1511111111111116         -3.5556617658585310E-003
   4.1611111111111114         -3.5582743585109711E-003
   4.1711111111111112         -3.1046499498188496E-003
   4.1811111111111110         -2.1322022657841444E-003
   4.1911111111111108         -6.4035714603960514E-004
   4.2011111111111106          1.2947866925969720E-003
   4.2111111111111121          3.5144535358995199E-003
   4.2211111111111119          5.7823993265628815E-003
   4.2311111111111117          7.8017888590693474E-003
   4.2411111111111115          9.2430012300610542E-003
   4.2511111111111113          9.7804479300975800E-003
   4.2611111111111111          9.1341184452176094E-003
   4.2711111111111109          7.1100024506449699E-003
   4.2811111111111106          3.6339799407869577E-003
   4.2911111111111104         -1.2256118934601545E-003
   4.3011111111111120         -7.2512752376496792E-003
   4.3111111111111118         -1.4087948016822338E-002
   4.3211111111111116         -2.1271875128149986E-002
   4.3311111111111114         -2.8273697942495346E-002
   4.3411111111111111         -3.4551367163658142E-002
   4.3511111111111109         -3.9606314152479172E-002
   4.3611111111111107         -4.3034866452217102E-002
   4.3711111111111105         -4.4568657875061035E-002
   4.3811111111111121         -4.4099479913711548E-002
   4.3911111111111119         -4.1685197502374649E-002
   4.4011111111111116         -3.7536192685365677E-002
   4.4111111111111114         -3.1985368579626083E-002
   4.4211111111111112         -2.5446891784667969E-002
   4.4311111111111110         -1.8369035795331001E-002
   4.4411111111111108         -1.1187608353793621E-002
   4.4511111111111106         -4.2867586016654968E-003
   4.4611111111111121          2.0286666695028543E-003
   4.4711111111111119          7.5477571226656437E-003
   4.4811111111111117          1.2154764495790005E-002
   4.4911111111111115          1.5818359330296516E-002
   4.5011111111111113          1.8573302775621414E-002
   4.5111111111111111          2.0499244332313538E-002
   4.5211111111111109          2.1700045093894005E-002
   4.5311111111111106          2.2286567836999893E-002
   4.5411111111111104          2.2365601733326912E-002
   4.5511111111111120          2.2035170346498489E-002