 -0.88888888888888884          0.0000000000000000     
 -0.87888888888888883          0.0000000000000000     
 -0.86888888888888882          0.0000000000000000     
 -0.85888888888888881          0.0000000000000000     
 -0.84888888888888880          0.0000000000000000     
 -0.83888888888888880          0.0000000000000000     
 -0.82888888888888879          0.0000000000000000     
 -0.81888888888888878          0.0000000000000000     
 -0.80888888888888888          0.0000000000000000     
 -0.79888888888888887          0.0000000000000000     
 -0.78888888888888886          0.0000000000000000     
 -0.77888888888888885          0.0000000000000000     
 -0.76888888888888884          0.0000000000000000     
 -0.75888888888888884          0.0000000000000000     
 -0.74888888888888883          0.0000000000000000     
 -0.73888888888888882          0.0000000000000000     
 -0.72888888888888881          0.0000000000000000     
 -0.71888888888888880          0.0000000000000000     
 -0.70888888888888890          0.0000000000000000     
 -0.69888888888888889          0.0000000000000000     
 -0.68888888888888888          0.0000000000000000     
 -0.67888888888888888          0.0000000000000000     
 -0.66888888888888887          0.0000000000000000     
 -0.65888888888888886          0.0000000000000000     
 -0.64888888888888885          0.0000000000000000     
 -0.63888888888888884          0.0000000000000000     
 -0.62888888888888883          0.0000000000000000     
 -0.61888888888888882          0.0000000000000000     
 -0.60888888888888881          0.0000000000000000     
 -0.59888888888888880          0.0000000000000000     
 -0.58888888888888880          0.0000000000000000     
 -0.57888888888888879          0.0000000000000000     
 -0.56888888888888878          0.0000000000000000     
 -0.55888888888888877          0.0000000000000000     
 -0.54888888888888876          0.0000000000000000     
 -0.53888888888888875          0.0000000000000000     
 -0.52888888888888885          0.0000000000000000     
 -0.51888888888888884          0.0000000000000000     
 -0.50888888888888884          0.0000000000000000     
 -0.49888888888888883          0.0000000000000000     
 -0.48888888888888882          0.0000000000000000     
 -0.47888888888888881          0.0000000000000000     
 -0.46888888888888886          0.0000000000000000     
 -0.45888888888888885          0.0000000000000000     
 -0.44888888888888884          0.0000000000000000     
 -0.43888888888888883          0.0000000000000000     
 -0.42888888888888882          0.0000000000000000     
 -0.41888888888888881          0.0000000000000000     
 -0.40888888888888886          0.0000000000000000     
 -0.39888888888888885          0.0000000000000000     
 -0.38888888888888884          0.0000000000000000     
 -0.37888888888888883          0.0000000000000000     
 -0.36888888888888882          0.0000000000000000     
 -0.35888888888888881          0.0000000000000000     
 -0.34888888888888880          0.0000000000000000     
 -0.33888888888888880          0.0000000000000000     
 -0.32888888888888879          0.0000000000000000     
 -0.31888888888888878          0.0000000000000000     
 -0.30888888888888888          0.0000000000000000     
 -0.29888888888888887          0.0000000000000000     
 -0.28888888888888886          0.0000000000000000     
 -0.27888888888888885          0.0000000000000000     
 -0.26888888888888884          0.0000000000000000     
 -0.25888888888888884          0.0000000000000000     
 -0.24888888888888883          0.0000000000000000     
 -0.23888888888888882          0.0000000000000000     
 -0.22888888888888881          0.0000000000000000     
 -0.21888888888888880          0.0000000000000000     
 -0.20888888888888879          0.0000000000000000     
 -0.19888888888888878          0.0000000000000000     
 -0.18888888888888877          0.0000000000000000     
 -0.17888888888888888          0.0000000000000000     
 -0.16888888888888887          0.0000000000000000     
 -0.15888888888888886          0.0000000000000000     
 -0.14888888888888885          0.0000000000000000     
 -0.13888888888888884          0.0000000000000000     
 -0.12888888888888883          0.0000000000000000     
 -0.11888888888888882          0.0000000000000000     
 -0.10888888888888881          0.0000000000000000     
  -9.8888888888888804E-002     0.0000000000000000     
  -8.8888888888888795E-002     0.0000000000000000     
  -7.8888888888888786E-002     0.0000000000000000     
  -6.8888888888888777E-002     0.0000000000000000     
  -5.8888888888888768E-002     0.0000000000000000     
  -4.8888888888888871E-002     0.0000000000000000     
  -3.8888888888888862E-002     0.0000000000000000     
  -2.8888888888888853E-002     0.0000000000000000     
  -1.8888888888888844E-002     0.0000000000000000     
  -8.8888888888888351E-003     0.0000000000000000     
   1.1111111111111738E-003     0.0000000000000000     
   1.1111111111111183E-002     0.0000000000000000     
   2.1111111111111192E-002     0.0000000000000000     
   3.1111111111111200E-002     0.0000000000000000     
   4.1111111111111209E-002     0.0000000000000000     
   5.1111111111111218E-002     0.0000000000000000     
   6.1111111111111227E-002     0.0000000000000000     
   7.1111111111111125E-002     0.0000000000000000     
   8.1111111111111134E-002     0.0000000000000000     
   9.1111111111111143E-002     0.0000000000000000     
  0.10111111111111115          0.0000000000000000     
  0.11111111111111116          0.0000000000000000     
  0.12111111111111117          0.0000000000000000     
  0.13111111111111118          0.0000000000000000     
  0.14111111111111119          0.0000000000000000     
  0.15111111111111120          0.0000000000000000     
  0.16111111111111120          0.0000000000000000     
  0.17111111111111121          0.0000000000000000     
  0.18111111111111122          0.0000000000000000     
  0.19111111111111123          0.0000000000000000     
  0.20111111111111124          0.0000000000000000     
  0.21111111111111125          0.0000000000000000     
  0.22111111111111126          0.0000000000000000     
  0.23111111111111127          0.0000000000000000     
  0.24111111111111128          0.0000000000000000     
  0.25111111111111128          0.0000000000000000     
  0.26111111111111129          0.0000000000000000     
  0.27111111111111108          0.0000000000000000     
  0.28111111111111109          0.0000000000000000     
  0.29111111111111110          0.0000000000000000     
  0.30111111111111111          0.0000000000000000     
  0.31111111111111112          0.0000000000000000     
  0.32111111111111112          0.0000000000000000     
  0.33111111111111113          0.0000000000000000     
  0.34111111111111114          0.0000000000000000     
  0.35111111111111115          0.0000000000000000     
  0.36111111111111116          0.0000000000000000     
  0.37111111111111117          0.0000000000000000     
  0.38111111111111118          0.0000000000000000     
  0.39111111111111119          0.0000000000000000     
  0.40111111111111120          0.0000000000000000     
  0.41111111111111120          0.0000000000000000     
  0.42111111111111121          0.0000000000000000     
  0.43111111111111122          0.0000000000000000     
  0.44111111111111123          0.0000000000000000     
  0.45111111111111124          0.0000000000000000     
  0.46111111111111125          0.0000000000000000     
  0.47111111111111126          0.0000000000000000     
  0.48111111111111127          0.0000000000000000     
  0.49111111111111128          0.0000000000000000     
  0.50111111111111128          0.0000000000000000     
  0.51111111111111129          0.0000000000000000     
  0.52111111111111108          0.0000000000000000     
  0.53111111111111109          0.0000000000000000     
  0.54111111111111110          0.0000000000000000     
  0.55111111111111111          0.0000000000000000     
  0.56111111111111112          0.0000000000000000     
  0.57111111111111112          0.0000000000000000     
  0.58111111111111113          0.0000000000000000     
  0.59111111111111114          0.0000000000000000     
  0.60111111111111115          0.0000000000000000     
  0.61111111111111116          0.0000000000000000     
  0.62111111111111117          0.0000000000000000     
  0.63111111111111118          0.0000000000000000     
  0.64111111111111119          0.0000000000000000     
  0.65111111111111120          0.0000000000000000     
  0.66111111111111120          0.0000000000000000     
  0.67111111111111121          0.0000000000000000     
  0.68111111111111122          0.0000000000000000     
  0.69111111111111123          0.0000000000000000     
  0.70111111111111124          0.0000000000000000     
  0.71111111111111125          0.0000000000000000     
  0.72111111111111126          0.0000000000000000     
  0.73111111111111127          0.0000000000000000     
  0.74111111111111128          0.0000000000000000     
  0.75111111111111128          0.0000000000000000     
  0.76111111111111129          0.0000000000000000     
  0.77111111111111130          0.0000000000000000     
  0.78111111111111109          0.0000000000000000     
  0.79111111111111110          0.0000000000000000     
  0.80111111111111111          0.0000000000000000     
  0.81111111111111112          0.0000000000000000     
  0.82111111111111112          0.0000000000000000     
  0.83111111111111113          0.0000000000000000     
  0.84111111111111114          0.0000000000000000     
  0.85111111111111115          0.0000000000000000     
  0.86111111111111116          0.0000000000000000     
  0.87111111111111117          0.0000000000000000     
  0.88111111111111118          0.0000000000000000     
  0.89111111111111119          0.0000000000000000     
  0.90111111111111120          0.0000000000000000     
  0.91111111111111120          0.0000000000000000     
  0.92111111111111121          0.0000000000000000     
  0.93111111111111122          0.0000000000000000     
  0.94111111111111123          0.0000000000000000     
  0.95111111111111124          0.0000000000000000     
  0.96111111111111125          0.0000000000000000     
  0.97111111111111126          0.0000000000000000     
  0.98111111111111127          0.0000000000000000     
  0.99111111111111128          0.0000000000000000     
   1.0011111111111113          0.0000000000000000     
   1.0111111111111113          0.0000000000000000     
   1.0211111111111113          0.0000000000000000     
   1.0311111111111111          0.0000000000000000     
   1.0411111111111111          0.0000000000000000     
   1.0511111111111111          0.0000000000000000     
   1.0611111111111111          0.0000000000000000     
   1.0711111111111111          0.0000000000000000     
   1.0811111111111111          0.0000000000000000     
   1.0911111111111111          0.0000000000000000     
   1.1011111111111112          0.0000000000000000     
   1.1111111111111112          0.0000000000000000     
   1.1211111111111114          0.0000000000000000     
   1.1311111111111112          0.0000000000000000     
   1.1411111111111114          0.0000000000000000     
   1.1511111111111112          0.0000000000000000     
   1.1611111111111110          0.0000000000000000     
   1.1711111111111112          0.0000000000000000     
   1.1811111111111110          0.0000000000000000     
   1.1911111111111112          0.0000000000000000     
   1.2011111111111110          0.0000000000000000     
   1.2111111111111112          0.0000000000000000     
   1.2211111111111110          0.0000000000000000     
   1.2311111111111113          0.0000000000000000     
   1.2411111111111111          0.0000000000000000     
   1.2511111111111113          0.0000000000000000     
   1.2611111111111111          0.0000000000000000     
   1.2711111111111113          0.0000000000000000     
   1.2811111111111111          0.0000000000000000     
   1.2911111111111113          0.0000000000000000     
   1.3011111111111111          0.0000000000000000     
   1.3111111111111113          0.0000000000000000     
   1.3211111111111111          0.0000000000000000     
   1.3311111111111114          0.0000000000000000     
   1.3411111111111111          0.0000000000000000     
   1.3511111111111114          0.0000000000000000     
   1.3611111111111112          0.0000000000000000     
   1.3711111111111114          0.0000000000000000     
   1.3811111111111112          0.0000000000000000     
   1.3911111111111114          0.0000000000000000     
   1.4011111111111112          0.0000000000000000     
   1.4111111111111114          0.0000000000000000     
   1.4211111111111112          0.0000000000000000     
   1.4311111111111110          0.0000000000000000     
   1.4411111111111112          0.0000000000000000     
   1.4511111111111110          0.0000000000000000     
   1.4611111111111112          0.0000000000000000     
   1.4711111111111110          0.0000000000000000     
   1.4811111111111113          0.0000000000000000     
   1.4911111111111111          0.0000000000000000     
   1.5011111111111113          0.0000000000000000     
   1.5111111111111111          0.0000000000000000     
   1.5211111111111113          0.0000000000000000     
   1.5311111111111111          0.0000000000000000     
   1.5411111111111113          0.0000000000000000     
   1.5511111111111111          0.0000000000000000     
   1.5611111111111113          0.0000000000000000     
   1.5711111111111111          0.0000000000000000     
   1.5811111111111114          0.0000000000000000     
   1.5911111111111111          0.0000000000000000     
   1.6011111111111114          0.0000000000000000     
   1.6111111111111112          0.0000000000000000     
   1.6211111111111114          0.0000000000000000     
   1.6311111111111112          0.0000000000000000     
   1.6411111111111114          0.0000000000000000     
   1.6511111111111112          0.0000000000000000     
   1.6611111111111114          0.0000000000000000     
   1.6711111111111112          0.0000000000000000     
   1.6811111111111110          0.0000000000000000     
   1.6911111111111112          0.0000000000000000     
   1.7011111111111110          0.0000000000000000     
   1.7111111111111112          0.0000000000000000     
   1.7211111111111110          0.0000000000000000     
   1.7311111111111113          0.0000000000000000     
   1.7411111111111111          0.0000000000000000     
   1.7511111111111113          0.0000000000000000     
   1.7611111111111111          0.0000000000000000     
   1.7711111111111113          0.0000000000000000     
   1.7811111111111111          0.0000000000000000     
   1.7911111111111113          0.0000000000000000     
   1.8011111111111111          0.0000000000000000     
   1.8111111111111113          0.0000000000000000     
   1.8211111111111111          0.0000000000000000     
   1.8311111111111114          0.0000000000000000     
   1.8411111111111111          0.0000000000000000     
   1.8511111111111114          0.0000000000000000     
   1.8611111111111112          0.0000000000000000     
   1.8711111111111114          0.0000000000000000     
   1.8811111111111112          0.0000000000000000     
   1.8911111111111114          0.0000000000000000     
   1.9011111111111112          0.0000000000000000     
   1.9111111111111114          0.0000000000000000     
   1.9211111111111112          0.0000000000000000     
   1.9311111111111110          0.0000000000000000     
   1.9411111111111112          0.0000000000000000     
   1.9511111111111110          0.0000000000000000     
   1.9611111111111112          0.0000000000000000     
   1.9711111111111110          0.0000000000000000     
   1.9811111111111113          0.0000000000000000     
   1.9911111111111111          0.0000000000000000     
   2.0011111111111113          0.0000000000000000     
   2.0111111111111111          0.0000000000000000     
   2.0211111111111113          0.0000000000000000     
   2.0311111111111111          0.0000000000000000     
   2.0411111111111113          0.0000000000000000     
   2.0511111111111111          0.0000000000000000     
   2.0611111111111113          0.0000000000000000     
   2.0711111111111111          0.0000000000000000     
   2.0811111111111114          0.0000000000000000     
   2.0911111111111111          0.0000000000000000     
   2.1011111111111114          0.0000000000000000     
   2.1111111111111112          0.0000000000000000     
   2.1211111111111114          1.7629457121276123E-038
   2.1311111111111112          1.5213594746706245E-037
   2.1411111111111114          8.9816045704695717E-038
   2.1511111111111112         -2.1028528231913023E-037
   2.1611111111111114         -2.3839730254172383E-037
   2.1711111111111112          8.7515281782090086E-037
   2.1811111111111114         -8.5062834587473308E-037
   2.1911111111111112         -1.3627075566067779E-036
   2.2011111111111110          1.9961519493497957E-036
   2.2111111111111112          5.1023356837195402E-036
   2.2211111111111110          2.7846011174591434E-036
   2.2311111111111113         -8.3743766559112614E-037
   2.2411111111111111         -6.5536651219004916E-036
   2.2511111111111113         -1.6921170868535083E-035
   2.2611111111111111         -2.2747749973549091E-035
   2.2711111111111113         -1.0811084107444336E-035
   2.2811111111111111          1.7022413763330758E-035
   2.2911111111111113          4.8757307359919204E-035
   2.3011111111111111          7.1669046831013918E-035
   2.3111111111111113          6.4725026323116120E-035
   2.3211111111111111          6.3154926324739964E-036
   2.3311111111111114         -9.6193256902524681E-035
   2.3411111111111111         -2.0011232415202163E-034
   2.3511111111111114         -2.4641585019150292E-034
   2.3611111111111112         -1.7295368659941167E-034
   2.3711111111111114          5.9705447335801577E-035
   2.3811111111111112          4.1285395757118637E-034
   2.3911111111111114          7.4224180100899197E-034
   2.4011111111111112          8.3293555236099896E-034
   2.4111111111111114          4.8260090468676906E-034
   2.4211111111111112         -3.8810644949076745E-034
   2.4311111111111114         -1.6040162246397445E-033
   2.4411111111111112         -2.6644636576501085E-033
   2.4511111111111110         -2.8440555008977453E-033
   2.4611111111111112         -1.4769213162513580E-033
   2.4711111111111110          1.6460344538808795E-033
   2.4811111111111113          5.8720222357694223E-033
   2.4911111111111111          9.4856457864886949E-033
   2.5011111111111113          1.0002575304734550E-032
   2.5111111111111111          5.0999325668943889E-033
   2.5211111111111113         -5.9673695213004951E-033
   2.5311111111111111         -2.0913240566630456E-032
   2.5411111111111113         -3.3708008745175465E-032
   2.5511111111111111         -3.5575504865383325E-032
   2.5611111111111113         -1.8294150990922088E-032
   2.5711111111111111          2.0653584150109383E-032
   2.5811111111111114          7.2913639999937653E-032
   2.5911111111111111          1.1709933829529890E-031
   2.6011111111111114          1.2291809410658676E-031
   2.6111111111111112          6.3190991042436168E-032
   2.6211111111111114         -6.8506641149043848E-032
   2.6311111111111112         -2.4165965678470193E-031
   2.6411111111111114         -3.8444286485874434E-031
   2.6511111111111112         -4.0054415170935859E-031
   2.6611111111111114         -2.0937992363428546E-031
   2.6711111111111112          2.0067127373621854E-031
   2.6811111111111114          7.2941911814569280E-031
   2.6911111111111112          1.1615462169740744E-030
   2.7011111111111110          1.2237299621721215E-030
   2.7111111111111112          6.9932176078723895E-031
   2.7211111111111110         -4.3484112720533417E-031
   2.7311111111111113         -1.9112861059624321E-030
   2.7411111111111111         -3.1791427154712013E-030
   2.7511111111111113         -3.5503845201614542E-030
   2.7611111111111111         -2.4626452424868095E-030
   2.7711111111111113          2.2517010415001108E-031
   2.7811111111111111          4.0236697669324650E-030
   2.7911111111111113          7.7964909201904151E-030
   2.8011111111111111          9.9831112811945384E-030
   2.8111111111111113          9.0283871826770212E-030
   2.8211111111111111          3.9256794293733423E-030
   2.8311111111111114         -5.2402157659091971E-030
   2.8411111111111111         -1.6859635872148934E-029
   2.8511111111111114         -2.7598681427362923E-029
   2.8611111111111112         -3.2627125021084477E-029
   2.8711111111111114         -2.6554797304849661E-029
   2.8811111111111112         -5.3351216062917621E-030
   2.8911111111111114          3.0915379551371868E-029
   2.9011111111111112          7.4915322514854026E-029
   2.9111111111111114          1.1065187346821385E-028
   2.9211111111111112          1.1543471585504296E-028
   2.9311111111111114          6.7282555200162523E-029
   2.9411111111111112         -4.2695609917911440E-029
   2.9511111111111110         -1.9668855668783596E-028
   2.9611111111111112         -3.4259272408048668E-028
   2.9711111111111110         -4.0096982736605124E-028
   2.9811111111111113         -2.9182379037310516E-028
   2.9911111111111111          2.2135444102368261E-029
   3.0011111111111113          4.9090712057616512E-028
   3.0111111111111111          9.5611000974256044E-028
   3.0211111111111113          1.1784799996444495E-027
   3.0311111111111111          9.2457425505418052E-028
   3.0411111111111113          9.4792779267032849E-029
   3.0511111111111111         -1.1581089571401796E-027
   3.0611111111111113         -2.3909572850392003E-027
   3.0711111111111111         -2.9724960687928038E-027
   3.0811111111111114         -2.3351534649005801E-027
   3.0911111111111111         -3.0494601775269037E-028
   3.1011111111111114          2.6386898463787249E-027
   3.1111111111111112          5.3485820931734236E-027
   3.1211111111111109          6.3554286087779269E-027
   3.1311111111111116          4.5339711194099656E-027
   3.1411111111111114         -1.4870869454060527E-028
   3.1511111111111112         -6.1905108424540590E-027
   3.1611111111111110         -1.0796126940981219E-026
   3.1711111111111117         -1.0951084953190682E-026
   3.1811111111111114         -5.0592353857465407E-027
   3.1911111111111112          5.5661397619232723E-027
   3.2011111111111110          1.6287950073768443E-026
   3.2111111111111108          2.0514243099354859E-026
   3.2211111111111115          1.2824809099761402E-026
   3.2311111111111113         -7.2090462120770374E-027
   3.2411111111111111         -3.2454551153600935E-026
   3.2511111111111108         -4.8981926675079777E-026
   3.2611111111111115         -4.1248220938668702E-026
   3.2711111111111113         -7.1592237525667007E-028
   3.2811111111111111          6.5506202219720133E-026
   3.2911111111111109          1.3097966671187359E-025
   3.3011111111111116          1.5563759739038417E-025
   3.3111111111111113          1.0201630577598976E-025
   3.3211111111111111         -4.2201882898858952E-026
   3.3311111111111109         -2.4492844277760775E-025
   3.3411111111111116         -4.2573353801342033E-025
   3.3511111111111114         -4.7623656107708923E-025
   3.3611111111111112         -3.0465145023437025E-025
   3.3711111111111109          1.0858534774899143E-025
   3.3811111111111116          6.6847348342471869E-025
   3.3911111111111114          1.1638464295558855E-024
   3.4011111111111112          1.3239892362278902E-024
   3.4111111111111110          9.2807286549478735E-025
   3.4211111111111117         -6.6884570251246656E-026
   3.4311111111111114         -1.4361094450412737E-024
   3.4411111111111112         -2.6936951312808274E-024
   3.4511111111111110         -3.2273723526525517E-024
   3.4611111111111117         -2.5408947460917804E-024
   3.4711111111111115         -5.2360371413108489E-025
   3.4811111111111113          2.3734793321269301E-024
   3.4911111111111111          5.1693427974713253E-024
   3.5011111111111108          6.6417189393387772E-024
   3.5111111111111115          5.8120652478478816E-024
   3.5211111111111113          2.4519991939737824E-024
   3.5311111111111111         -2.6255401128676739E-024
   3.5411111111111109         -7.6890935075052406E-024
   3.5511111111111116         -1.0674858669702585E-023
   3.5611111111111113         -1.0067386863306282E-023
   3.5711111111111111         -5.7098040254127240E-024
   3.5811111111111109          8.8603929962860411E-025
   3.5911111111111116          7.0175898614321483E-024
   3.6011111111111114          1.0007374269941593E-023
   3.6111111111111112          8.6889029185304980E-024
   3.6211111111111109          4.3983633968194108E-024
   3.6311111111111116          7.3510176016343002E-025
   3.6411111111111114          1.8047301437699848E-024
   3.6511111111111112          9.4377693647177097E-024
   3.6611111111111110          2.0675162379350682E-023
   3.6711111111111117          2.7193445886266812E-023
   3.6811111111111114          1.7931215427900692E-023
   3.6911111111111112         -1.5117946535543501E-023
   3.7011111111111110         -6.9815262962890645E-023
   3.7111111111111117         -1.2895568539987953E-022
   3.7211111111111115         -1.6138541642560427E-022
   3.7311111111111113         -1.3152324463064391E-022
   3.7411111111111111         -1.6236721693102423E-023
   3.7511111111111108          1.7631731642753863E-022
   3.7611111111111115          3.9469914494571142E-022
   3.7711111111111113          5.4824595978960934E-022
   3.7811111111111111          5.3234514926944632E-022
   3.7911111111111109          2.7182735679528807E-022
   3.8011111111111116         -2.3065709742681246E-022
   3.8111111111111113         -8.6210334598764255E-022
   3.8211111111111111         -1.4040087321218985E-021
   3.8311111111111109         -1.5870351653979353E-021
   3.8411111111111116         -1.1895846755632047E-021
   3.8511111111111114         -1.5220446388402488E-022
   3.8611111111111112          1.3374278619792864E-021
   3.8711111111111109          2.8367064547222872E-021
   3.8811111111111116          3.7470356825018000E-021
   3.8911111111111114          3.5116050552088631E-021
   3.9011111111111112          1.8581297776973562E-021
   3.9111111111111110         -1.0036763377628911E-021
   3.9211111111111117         -4.3275613761491717E-021
   3.9311111111111114         -6.9832041340147100E-021
   3.9411111111111112         -7.8079847918803401E-021
   3.9511111111111110         -6.0615989158341935E-021
   3.9611111111111117         -1.8164839803534388E-021
   3.9711111111111115          3.8981637614578689E-021
   3.9811111111111113          9.3182736109408192E-021
   3.9911111111111111          1.2518571585216694E-020
   4.0011111111111113          1.2161483207773808E-020
   4.0111111111111111          8.1213263009116823E-021
   4.0211111111111109          1.6692202848474452E-021
   4.0311111111111106         -4.9629839128126482E-021
   4.0411111111111104         -9.5616828152944848E-021
   4.0511111111111120         -1.1077645576369195E-020
   4.0611111111111118         -1.0363716006314907E-020
   4.0711111111111116         -9.9606043981888205E-021
   4.0811111111111114         -1.2716422040188155E-020
   4.0911111111111111         -1.9591546626119716E-020
   4.1011111111111109         -2.7603824834461480E-020
   4.1111111111111107         -2.9216329428102645E-020
   4.1211111111111105         -1.4279365267322896E-020
   4.1311111111111121          2.5216399025287312E-020
   4.1411111111111119          8.8692806206818893E-020
   4.1511111111111116          1.6139548738995178E-019
   4.1611111111111114          2.1304326189517621E-019
   4.1711111111111112          2.0365313343086839E-019
   4.1811111111111110          9.7427116154691417E-020
   4.1911111111111108         -1.1780716623737877E-019
   4.2011111111111106         -4.1187390650546631E-019
   4.2111111111111121         -7.0310605391069947E-019
   4.2211111111111119         -8.6742460371495758E-019
   4.2311111111111117         -7.7019034988996173E-019
   4.2411111111111115         -3.1759806414126636E-019
   4.2511111111111113          4.8526581654696339E-019
   4.2611111111111111          1.4908016652126029E-018
   4.2711111111111109          2.4036536840004774E-018
   4.2811111111111106          2.8320099913916753E-018
   4.2911111111111104          2.3983359466375271E-018
   4.3011111111111120          8.9013660519140263E-019
   4.3111111111111118         -1.5916784088649760E-018
   4.3211111111111116         -4.5443640220632109E-018
   4.3311111111111114         -7.0909363179393753E-018
   4.3411111111111111         -8.1566832637782091E-018
   4.3511111111111109         -6.7837545256616829E-018
   4.3611111111111107         -2.5184078299944995E-018
   4.3711111111111105          4.2436797334971226E-018
   4.3811111111111121          1.2092367259274887E-017
   4.3911111111111119          1.8737981795459602E-017
   4.4011111111111116          2.1498736794524734E-017
   4.4111111111111114          1.8086221375410695E-017
   4.4211111111111112          7.5132434535109729E-018
   4.4311111111111110         -9.1483743837363955E-018
   4.4411111111111108         -2.8463870521823370E-017
   4.4511111111111106         -4.5026021544772462E-017
   4.4611111111111121         -5.2617226771016558E-017
   4.4711111111111119         -4.5984915780623533E-017
   4.4811111111111117         -2.2823713045350949E-017
   4.4911111111111115          1.4623013019636956E-017
   4.5011111111111113          5.8964564114217713E-017
   4.5111111111111111          9.8532219320099758E-017
   4.5211111111111109          1.1983137893951137E-016
   4.5311111111111106          1.1121692151703713E-016
   4.5411111111111104          6.6955691314296497E-017
   4.5511111111111120         -9.4861386976213984E-018