 -0.88888888888888884          0.0000000000000000     
 -0.87888888888888883          0.0000000000000000     
 -0.86888888888888882          0.0000000000000000     
 -0.85888888888888881          0.0000000000000000     
 -0.84888888888888880          0.0000000000000000     
 -0.83888888888888880          0.0000000000000000     
 -0.82888888888888879          0.0000000000000000     
 -0.81888888888888878          0.0000000000000000     
 -0.80888888888888888          0.0000000000000000     
 -0.79888888888888887          0.0000000000000000     
 -0.78888888888888886          0.0000000000000000     
 -0.77888888888888885          0.0000000000000000     
 -0.76888888888888884          0.0000000000000000     
 -0.75888888888888884          0.0000000000000000     
 -0.74888888888888883          0.0000000000000000     
 -0.73888888888888882          0.0000000000000000     
 -0.72888888888888881          0.0000000000000000     
 -0.71888888888888880          0.0000000000000000     
 -0.70888888888888890          0.0000000000000000     
 -0.69888888888888889          0.0000000000000000     
 -0.68888888888888888          0.0000000000000000     
 -0.67888888888888888          0.0000000000000000     
 -0.66888888888888887          0.0000000000000000     
 -0.65888888888888886          0.0000000000000000     
 -0.64888888888888885          0.0000000000000000     
 -0.63888888888888884          0.0000000000000000     
 -0.62888888888888883          0.0000000000000000     
 -0.61888888888888882          0.0000000000000000     
 -0.60888888888888881          0.0000000000000000     
 -0.59888888888888880          0.0000000000000000     
 -0.58888888888888880          0.0000000000000000     
 -0.57888888888888879          0.0000000000000000     
 -0.56888888888888878          0.0000000000000000     
 -0.55888888888888877          0.0000000000000000     
 -0.54888888888888876          0.0000000000000000     
 -0.53888888888888875          0.0000000000000000     
 -0.52888888888888885          0.0000000000000000     
 -0.51888888888888884          0.0000000000000000     
 -0.50888888888888884          0.0000000000000000     
 -0.49888888888888883          0.0000000000000000     
 -0.48888888888888882          0.0000000000000000     
 -0.47888888888888881          0.0000000000000000     
 -0.46888888888888886          0.0000000000000000     
 -0.45888888888888885          0.0000000000000000     
 -0.44888888888888884          0.0000000000000000     
 -0.43888888888888883          0.0000000000000000     
 -0.42888888888888882          0.0000000000000000     
 -0.41888888888888881          0.0000000000000000     
 -0.40888888888888886          0.0000000000000000     
 -0.39888888888888885          0.0000000000000000     
 -0.38888888888888884          0.0000000000000000     
 -0.37888888888888883          0.0000000000000000     
 -0.36888888888888882          0.0000000000000000     
 -0.35888888888888881          0.0000000000000000     
 -0.34888888888888880          0.0000000000000000     
 -0.33888888888888880          0.0000000000000000     
 -0.32888888888888879          0.0000000000000000     
 -0.31888888888888878          0.0000000000000000     
 -0.30888888888888888          0.0000000000000000     
 -0.29888888888888887          0.0000000000000000     
 -0.28888888888888886          0.0000000000000000     
 -0.27888888888888885          0.0000000000000000     
 -0.26888888888888884          0.0000000000000000     
 -0.25888888888888884          0.0000000000000000     
 -0.24888888888888883          0.0000000000000000     
 -0.23888888888888882          0.0000000000000000     
 -0.22888888888888881          0.0000000000000000     
 -0.21888888888888880          0.0000000000000000     
 -0.20888888888888879          0.0000000000000000     
 -0.19888888888888878          0.0000000000000000     
 -0.18888888888888877          0.0000000000000000     
 -0.17888888888888888          0.0000000000000000     
 -0.16888888888888887          0.0000000000000000     
 -0.15888888888888886          0.0000000000000000     
 -0.14888888888888885          0.0000000000000000     
 -0.13888888888888884          0.0000000000000000     
 -0.12888888888888883          0.0000000000000000     
 -0.11888888888888882          0.0000000000000000     
 -0.10888888888888881          0.0000000000000000     
  -9.8888888888888804E-002     0.0000000000000000     
  -8.8888888888888795E-002     0.0000000000000000     
  -7.8888888888888786E-002     0.0000000000000000     
  -6.8888888888888777E-002     0.0000000000000000     
  -5.8888888888888768E-002     0.0000000000000000     
  -4.8888888888888871E-002     0.0000000000000000     
  -3.8888888888888862E-002     0.0000000000000000     
  -2.8888888888888853E-002     0.0000000000000000     
  -1.8888888888888844E-002     0.0000000000000000     
  -8.8888888888888351E-003     0.0000000000000000     
   1.1111111111111738E-003     0.0000000000000000     
   1.1111111111111183E-002     0.0000000000000000     
   2.1111111111111192E-002     0.0000000000000000     
   3.1111111111111200E-002     0.0000000000000000     
   4.1111111111111209E-002     0.0000000000000000     
   5.1111111111111218E-002     0.0000000000000000     
   6.1111111111111227E-002     0.0000000000000000     
   7.1111111111111125E-002     0.0000000000000000     
   8.1111111111111134E-002     0.0000000000000000     
   9.1111111111111143E-002     0.0000000000000000     
  0.10111111111111115          0.0000000000000000     
  0.11111111111111116          0.0000000000000000     
  0.12111111111111117          0.0000000000000000     
  0.13111111111111118          0.0000000000000000     
  0.14111111111111119          0.0000000000000000     
  0.15111111111111120          0.0000000000000000     
  0.16111111111111120          0.0000000000000000     
  0.17111111111111121          0.0000000000000000     
  0.18111111111111122          0.0000000000000000     
  0.19111111111111123          0.0000000000000000     
  0.20111111111111124          0.0000000000000000     
  0.21111111111111125          0.0000000000000000     
  0.22111111111111126          0.0000000000000000     
  0.23111111111111127          0.0000000000000000     
  0.24111111111111128          0.0000000000000000     
  0.25111111111111128          0.0000000000000000     
  0.26111111111111129          0.0000000000000000     
  0.27111111111111108          0.0000000000000000     
  0.28111111111111109          0.0000000000000000     
  0.29111111111111110          0.0000000000000000     
  0.30111111111111111          0.0000000000000000     
  0.31111111111111112          0.0000000000000000     
  0.32111111111111112          0.0000000000000000     
  0.33111111111111113          0.0000000000000000     
  0.34111111111111114          0.0000000000000000     
  0.35111111111111115          0.0000000000000000     
  0.36111111111111116          0.0000000000000000     
  0.37111111111111117          0.0000000000000000     
  0.38111111111111118          0.0000000000000000     
  0.39111111111111119          0.0000000000000000     
  0.40111111111111120          0.0000000000000000     
  0.41111111111111120          0.0000000000000000     
  0.42111111111111121          0.0000000000000000     
  0.43111111111111122          0.0000000000000000     
  0.44111111111111123          0.0000000000000000     
  0.45111111111111124          0.0000000000000000     
  0.46111111111111125          0.0000000000000000     
  0.47111111111111126          0.0000000000000000     
  0.48111111111111127          0.0000000000000000     
  0.49111111111111128          0.0000000000000000     
  0.50111111111111128          0.0000000000000000     
  0.51111111111111129          0.0000000000000000     
  0.52111111111111108          0.0000000000000000     
  0.53111111111111109          0.0000000000000000     
  0.54111111111111110          0.0000000000000000     
  0.55111111111111111          0.0000000000000000     
  0.56111111111111112          0.0000000000000000     
  0.57111111111111112          0.0000000000000000     
  0.58111111111111113          0.0000000000000000     
  0.59111111111111114          0.0000000000000000     
  0.60111111111111115          0.0000000000000000     
  0.61111111111111116          0.0000000000000000     
  0.62111111111111117          0.0000000000000000     
  0.63111111111111118          0.0000000000000000     
  0.64111111111111119          0.0000000000000000     
  0.65111111111111120          0.0000000000000000     
  0.66111111111111120          0.0000000000000000     
  0.67111111111111121          0.0000000000000000     
  0.68111111111111122          0.0000000000000000     
  0.69111111111111123          0.0000000000000000     
  0.70111111111111124          0.0000000000000000     
  0.71111111111111125          0.0000000000000000     
  0.72111111111111126          0.0000000000000000     
  0.73111111111111127          0.0000000000000000     
  0.74111111111111128          0.0000000000000000     
  0.75111111111111128          0.0000000000000000     
  0.76111111111111129          0.0000000000000000     
  0.77111111111111130          0.0000000000000000     
  0.78111111111111109          0.0000000000000000     
  0.79111111111111110          0.0000000000000000     
  0.80111111111111111          0.0000000000000000     
  0.81111111111111112          0.0000000000000000     
  0.82111111111111112          0.0000000000000000     
  0.83111111111111113          0.0000000000000000     
  0.84111111111111114          0.0000000000000000     
  0.85111111111111115          0.0000000000000000     
  0.86111111111111116          0.0000000000000000     
  0.87111111111111117          0.0000000000000000     
  0.88111111111111118          0.0000000000000000     
  0.89111111111111119          0.0000000000000000     
  0.90111111111111120          0.0000000000000000     
  0.91111111111111120          0.0000000000000000     
  0.92111111111111121          0.0000000000000000     
  0.93111111111111122          0.0000000000000000     
  0.94111111111111123          0.0000000000000000     
  0.95111111111111124          0.0000000000000000     
  0.96111111111111125          0.0000000000000000     
  0.97111111111111126          0.0000000000000000     
  0.98111111111111127          0.0000000000000000     
  0.99111111111111128          0.0000000000000000     
   1.0011111111111113          0.0000000000000000     
   1.0111111111111113          0.0000000000000000     
   1.0211111111111113          0.0000000000000000     
   1.0311111111111111          0.0000000000000000     
   1.0411111111111111          0.0000000000000000     
   1.0511111111111111          0.0000000000000000     
   1.0611111111111111          0.0000000000000000     
   1.0711111111111111          0.0000000000000000     
   1.0811111111111111          0.0000000000000000     
   1.0911111111111111          0.0000000000000000     
   1.1011111111111112          0.0000000000000000     
   1.1111111111111112          0.0000000000000000     
   1.1211111111111114          0.0000000000000000     
   1.1311111111111112          0.0000000000000000     
   1.1411111111111114          0.0000000000000000     
   1.1511111111111112          0.0000000000000000     
   1.1611111111111110          0.0000000000000000     
   1.1711111111111112          0.0000000000000000     
   1.1811111111111110          0.0000000000000000     
   1.1911111111111112          0.0000000000000000     
   1.2011111111111110          0.0000000000000000     
   1.2111111111111112          0.0000000000000000     
   1.2211111111111110          0.0000000000000000     
   1.2311111111111113          0.0000000000000000     
   1.2411111111111111          0.0000000000000000     
   1.2511111111111113          0.0000000000000000     
   1.2611111111111111          0.0000000000000000     
   1.2711111111111113          0.0000000000000000     
   1.2811111111111111          0.0000000000000000     
   1.2911111111111113          0.0000000000000000     
   1.3011111111111111          0.0000000000000000     
   1.3111111111111113          0.0000000000000000     
   1.3211111111111111          0.0000000000000000     
   1.3311111111111114          0.0000000000000000     
   1.3411111111111111          0.0000000000000000     
   1.3511111111111114          0.0000000000000000     
   1.3611111111111112          0.0000000000000000     
   1.3711111111111114          0.0000000000000000     
   1.3811111111111112          0.0000000000000000     
   1.3911111111111114          0.0000000000000000     
   1.4011111111111112          0.0000000000000000     
   1.4111111111111114          0.0000000000000000     
   1.4211111111111112          0.0000000000000000     
   1.4311111111111110          0.0000000000000000     
   1.4411111111111112          0.0000000000000000     
   1.4511111111111110          0.0000000000000000     
   1.4611111111111112          0.0000000000000000     
   1.4711111111111110          0.0000000000000000     
   1.4811111111111113          0.0000000000000000     
   1.4911111111111111          0.0000000000000000     
   1.5011111111111113          0.0000000000000000     
   1.5111111111111111          0.0000000000000000     
   1.5211111111111113          0.0000000000000000     
   1.5311111111111111          0.0000000000000000     
   1.5411111111111113          0.0000000000000000     
   1.5511111111111111          0.0000000000000000     
   1.5611111111111113          0.0000000000000000     
   1.5711111111111111          0.0000000000000000     
   1.5811111111111114          0.0000000000000000     
   1.5911111111111111          0.0000000000000000     
   1.6011111111111114          0.0000000000000000     
   1.6111111111111112          0.0000000000000000     
   1.6211111111111114          0.0000000000000000     
   1.6311111111111112          0.0000000000000000     
   1.6411111111111114          0.0000000000000000     
   1.6511111111111112          0.0000000000000000     
   1.6611111111111114          0.0000000000000000     
   1.6711111111111112          0.0000000000000000     
   1.6811111111111110          0.0000000000000000     
   1.6911111111111112          0.0000000000000000     
   1.7011111111111110          0.0000000000000000     
   1.7111111111111112          0.0000000000000000     
   1.7211111111111110          0.0000000000000000     
   1.7311111111111113          0.0000000000000000     
   1.7411111111111111          0.0000000000000000     
   1.7511111111111113          0.0000000000000000     
   1.7611111111111111          0.0000000000000000     
   1.7711111111111113          0.0000000000000000     
   1.7811111111111111          0.0000000000000000     
   1.7911111111111113          0.0000000000000000     
   1.8011111111111111          0.0000000000000000     
   1.8111111111111113          0.0000000000000000     
   1.8211111111111111          0.0000000000000000     
   1.8311111111111114          0.0000000000000000     
   1.8411111111111111          0.0000000000000000     
   1.8511111111111114          0.0000000000000000     
   1.8611111111111112          0.0000000000000000     
   1.8711111111111114          0.0000000000000000     
   1.8811111111111112          0.0000000000000000     
   1.8911111111111114          0.0000000000000000     
   1.9011111111111112          0.0000000000000000     
   1.9111111111111114          0.0000000000000000     
   1.9211111111111112          0.0000000000000000     
   1.9311111111111110          0.0000000000000000     
   1.9411111111111112          0.0000000000000000     
   1.9511111111111110          0.0000000000000000     
   1.9611111111111112          0.0000000000000000     
   1.9711111111111110          0.0000000000000000     
   1.9811111111111113          0.0000000000000000     
   1.9911111111111111          0.0000000000000000     
   2.0011111111111113          0.0000000000000000     
   2.0111111111111111          0.0000000000000000     
   2.0211111111111113          0.0000000000000000     
   2.0311111111111111          0.0000000000000000     
   2.0411111111111113          0.0000000000000000     
   2.0511111111111111          0.0000000000000000     
   2.0611111111111113          0.0000000000000000     
   2.0711111111111111          0.0000000000000000     
   2.0811111111111114          0.0000000000000000     
   2.0911111111111111          0.0000000000000000     
   2.1011111111111114          0.0000000000000000     
   2.1111111111111112          0.0000000000000000     
   2.1211111111111114          0.0000000000000000     
   2.1311111111111112          0.0000000000000000     
   2.1411111111111114          0.0000000000000000     
   2.1511111111111112          0.0000000000000000     
   2.1611111111111114          0.0000000000000000     
   2.1711111111111112          0.0000000000000000     
   2.1811111111111114          0.0000000000000000     
   2.1911111111111112          0.0000000000000000     
   2.2011111111111110          0.0000000000000000     
   2.2111111111111112          0.0000000000000000     
   2.2211111111111110          0.0000000000000000     
   2.2311111111111113          0.0000000000000000     
   2.2411111111111111          0.0000000000000000     
   2.2511111111111113          0.0000000000000000     
   2.2611111111111111          0.0000000000000000     
   2.2711111111111113          0.0000000000000000     
   2.2811111111111111          0.0000000000000000     
   2.2911111111111113          0.0000000000000000     
   2.3011111111111111          0.0000000000000000     
   2.3111111111111113          0.0000000000000000     
   2.3211111111111111          0.0000000000000000     
   2.3311111111111114          0.0000000000000000     
   2.3411111111111111          0.0000000000000000     
   2.3511111111111114          0.0000000000000000     
   2.3611111111111112          0.0000000000000000     
   2.3711111111111114          0.0000000000000000     
   2.3811111111111112          0.0000000000000000     
   2.3911111111111114          0.0000000000000000     
   2.4011111111111112          0.0000000000000000     
   2.4111111111111114          0.0000000000000000     
   2.4211111111111112          0.0000000000000000     
   2.4311111111111114          0.0000000000000000     
   2.4411111111111112          0.0000000000000000     
   2.4511111111111110          0.0000000000000000     
   2.4611111111111112          0.0000000000000000     
   2.4711111111111110          0.0000000000000000     
   2.4811111111111113          0.0000000000000000     
   2.4911111111111111          0.0000000000000000     
   2.5011111111111113          0.0000000000000000     
   2.5111111111111111          0.0000000000000000     
   2.5211111111111113          0.0000000000000000     
   2.5311111111111111          0.0000000000000000     
   2.5411111111111113          0.0000000000000000     
   2.5511111111111111          0.0000000000000000     
   2.5611111111111113          0.0000000000000000     
   2.5711111111111111          0.0000000000000000     
   2.5811111111111114          0.0000000000000000     
   2.5911111111111111          0.0000000000000000     
   2.6011111111111114          0.0000000000000000     
   2.6111111111111112          0.0000000000000000     
   2.6211111111111114          0.0000000000000000     
   2.6311111111111112          0.0000000000000000     
   2.6411111111111114          0.0000000000000000     
   2.6511111111111112          0.0000000000000000     
   2.6611111111111114          0.0000000000000000     
   2.6711111111111112          0.0000000000000000     
   2.6811111111111114          0.0000000000000000     
   2.6911111111111112          0.0000000000000000     
   2.7011111111111110          0.0000000000000000     
   2.7111111111111112          0.0000000000000000     
   2.7211111111111110          0.0000000000000000     
   2.7311111111111113          0.0000000000000000     
   2.7411111111111111          0.0000000000000000     
   2.7511111111111113          0.0000000000000000     
   2.7611111111111111          0.0000000000000000     
   2.7711111111111113          0.0000000000000000     
   2.7811111111111111          0.0000000000000000     
   2.7911111111111113          0.0000000000000000     
   2.8011111111111111          0.0000000000000000     
   2.8111111111111113          0.0000000000000000     
   2.8211111111111111          0.0000000000000000     
   2.8311111111111114          0.0000000000000000     
   2.8411111111111111          0.0000000000000000     
   2.8511111111111114          0.0000000000000000     
   2.8611111111111112          0.0000000000000000     
   2.8711111111111114          0.0000000000000000     
   2.8811111111111112          0.0000000000000000     
   2.8911111111111114          0.0000000000000000     
   2.9011111111111112          0.0000000000000000     
   2.9111111111111114          0.0000000000000000     
   2.9211111111111112          0.0000000000000000     
   2.9311111111111114          0.0000000000000000     
   2.9411111111111112          0.0000000000000000     
   2.9511111111111110          0.0000000000000000     
   2.9611111111111112          0.0000000000000000     
   2.9711111111111110          0.0000000000000000     
   2.9811111111111113          0.0000000000000000     
   2.9911111111111111          0.0000000000000000     
   3.0011111111111113          0.0000000000000000     
   3.0111111111111111          0.0000000000000000     
   3.0211111111111113          0.0000000000000000     
   3.0311111111111111          0.0000000000000000     
   3.0411111111111113          0.0000000000000000     
   3.0511111111111111          0.0000000000000000     
   3.0611111111111113          0.0000000000000000     
   3.0711111111111111          0.0000000000000000     
   3.0811111111111114          0.0000000000000000     
   3.0911111111111111          0.0000000000000000     
   3.1011111111111114          0.0000000000000000     
   3.1111111111111112          0.0000000000000000     
   3.1211111111111109          0.0000000000000000     
   3.1311111111111116          0.0000000000000000     
   3.1411111111111114          0.0000000000000000     
   3.1511111111111112          0.0000000000000000     
   3.1611111111111110          0.0000000000000000     
   3.1711111111111117          0.0000000000000000     
   3.1811111111111114          0.0000000000000000     
   3.1911111111111112          0.0000000000000000     
   3.2011111111111110          0.0000000000000000     
   3.2111111111111108          0.0000000000000000     
   3.2211111111111115          0.0000000000000000     
   3.2311111111111113          0.0000000000000000     
   3.2411111111111111          0.0000000000000000     
   3.2511111111111108          0.0000000000000000     
   3.2611111111111115          0.0000000000000000     
   3.2711111111111113          0.0000000000000000     
   3.2811111111111111          0.0000000000000000     
   3.2911111111111109          0.0000000000000000     
   3.3011111111111116          0.0000000000000000     
   3.3111111111111113          0.0000000000000000     
   3.3211111111111111          0.0000000000000000     
   3.3311111111111109          0.0000000000000000     
   3.3411111111111116          0.0000000000000000     
   3.3511111111111114          0.0000000000000000     
   3.3611111111111112          0.0000000000000000     
   3.3711111111111109          0.0000000000000000     
   3.3811111111111116          0.0000000000000000     
   3.3911111111111114          0.0000000000000000     
   3.4011111111111112          0.0000000000000000     
   3.4111111111111110          0.0000000000000000     
   3.4211111111111117          0.0000000000000000     
   3.4311111111111114          0.0000000000000000     
   3.4411111111111112          0.0000000000000000     
   3.4511111111111110          0.0000000000000000     
   3.4611111111111117          0.0000000000000000     
   3.4711111111111115          0.0000000000000000     
   3.4811111111111113          0.0000000000000000     
   3.4911111111111111          0.0000000000000000     
   3.5011111111111108          0.0000000000000000     
   3.5111111111111115          0.0000000000000000     
   3.5211111111111113          0.0000000000000000     
   3.5311111111111111          0.0000000000000000     
   3.5411111111111109          0.0000000000000000     
   3.5511111111111116          0.0000000000000000     
   3.5611111111111113          0.0000000000000000     
   3.5711111111111111          0.0000000000000000     
   3.5811111111111109          0.0000000000000000     
   3.5911111111111116          0.0000000000000000     
   3.6011111111111114          0.0000000000000000     
   3.6111111111111112          0.0000000000000000     
   3.6211111111111109          0.0000000000000000     
   3.6311111111111116          0.0000000000000000     
   3.6411111111111114          0.0000000000000000     
   3.6511111111111112          0.0000000000000000     
   3.6611111111111110          0.0000000000000000     
   3.6711111111111117          1.2844598799275710E-038
   3.6811111111111114          0.0000000000000000     
   3.6911111111111112          0.0000000000000000     
   3.7011111111111110         -1.7534059524421818E-038
   3.7111111111111117          1.2306402098082478E-038
   3.7211111111111115          3.0058154740235620E-038
   3.7311111111111113          9.9819399763675714E-038
   3.7411111111111111          1.8348413757355549E-037
   3.7511111111111108          2.8016034640903664E-037
   3.7611111111111115          3.1565039362289155E-037
   3.7711111111111113          4.1801082954905989E-037
   3.7811111111111111          5.2690441038599110E-037
   3.7911111111111109          8.6229551204715065E-038
   3.8011111111111116         -5.6415410731785568E-037
   3.8111111111111113         -3.5763123290272359E-037
   3.8211111111111111          1.2417833464069464E-036
   3.8311111111111109          2.9503313640090892E-036
   3.8411111111111116          2.1506535128323927E-036
   3.8511111111111114         -3.2050017774612014E-036
   3.8611111111111112         -1.2044698847897612E-035
   3.8711111111111109         -1.8770198227617098E-035
   3.8811111111111116         -1.6121775877861201E-035
   3.8911111111111114          2.8368424210401898E-037
   3.9011111111111112          2.7774391684490034E-035
   3.9111111111111110          5.5311451748315270E-035
   3.9211111111111117          6.6833879259703131E-035
   3.9311111111111114          4.8044603642688838E-035
   3.9411111111111112         -5.7010948678242849E-036
   3.9511111111111110         -8.4821743809916949E-035
   3.9611111111111117         -1.6394603639706616E-034
   3.9711111111111115         -2.0511352456066755E-034
   3.9811111111111113         -1.6639631074949455E-034
   3.9911111111111111         -2.0142787337420336E-035
   4.0011111111111113          2.2310903441593652E-034
   4.0111111111111111          4.9539078831894442E-034
   4.0211111111111109          6.7083993233489420E-034
   4.0311111111111106          5.9706512627557010E-034
   4.0411111111111104          1.6322904224024967E-034
   4.0511111111111120         -6.1384558364004672E-034
   4.0611111111111118         -1.5251576351018544E-033
   4.0711111111111116         -2.1712892271954411E-033
   4.0811111111111114         -2.0631859912480233E-033
   4.0911111111111111         -8.2462260324877760E-034
   4.1011111111111109          1.5513970567351080E-033
   4.1111111111111107          4.4941654304271241E-033
   4.1211111111111105          6.8246175110788645E-033
   4.1311111111111121          7.0127627287676643E-033
   4.1411111111111119          3.7537465180991202E-033
   4.1511111111111116         -3.2489161428010882E-033
   4.1611111111111114         -1.2574055889866677E-032
   4.1711111111111112         -2.0845783353940581E-032
   4.1811111111111110         -2.3343350323660941E-032
   4.1911111111111108         -1.5612810173130049E-032
   4.2011111111111106          4.1774134165766889E-033
   4.2111111111111121          3.2902730462672903E-032
   4.2211111111111119          6.1332746062769280E-032
   4.2311111111111117          7.5357927688206993E-032
   4.2411111111111115          6.0252149370888876E-032
   4.2511111111111113          7.5067465972854683E-033
   4.2611111111111111         -7.7715199407156713E-032
   4.2711111111111109         -1.7177743451391058E-031
   4.2811111111111106         -2.3412476150581809E-031
   4.2911111111111104         -2.1777079038955108E-031
   4.3011111111111120         -8.8366612328714641E-032
   4.3111111111111118          1.5277054897199030E-031
   4.3211111111111116          4.5055222046113647E-031
   4.3311111111111114          6.9404769379329161E-031
   4.3411111111111111          7.3967192093288689E-031
   4.3511111111111109          4.6168579765551469E-031
   4.3611111111111107         -1.7967679181626688E-031
   4.3711111111111105         -1.0752603236858633E-030
   4.3811111111111121         -1.9411073632077648E-030
   4.3911111111111119         -2.3603804313099048E-030
   4.4011111111111116         -1.9079100861868705E-030
   4.4111111111111114         -3.4158906631505404E-031
   4.4211111111111112          2.1936475602728870E-030
   4.4311111111111110          5.0361567174539088E-030
   4.4411111111111108          7.0482423103552846E-030
   4.4511111111111106          6.8931146718659690E-030
   4.4611111111111121          3.5396865811734907E-030
   4.4711111111111119         -3.1200486396248556E-030
   4.4811111111111117         -1.1763056488113606E-029
   4.4911111111111115         -1.9517547089188689E-029
   4.5011111111111113         -2.2478232549079346E-029
   4.5111111111111111         -1.6933060446645929E-029
   4.5211111111111109         -1.1025265264102487E-030
   4.5311111111111106          2.3128862841807502E-029
   4.5411111111111104          4.9254427538098472E-029
   4.5511111111111120          6.6751185109975009E-029