 -0.88888888888888884          0.0000000000000000     
 -0.87888888888888883          0.0000000000000000     
 -0.86888888888888882          0.0000000000000000     
 -0.85888888888888881          0.0000000000000000     
 -0.84888888888888880          0.0000000000000000     
 -0.83888888888888880          0.0000000000000000     
 -0.82888888888888879          0.0000000000000000     
 -0.81888888888888878          0.0000000000000000     
 -0.80888888888888888          0.0000000000000000     
 -0.79888888888888887          0.0000000000000000     
 -0.78888888888888886          0.0000000000000000     
 -0.77888888888888885          0.0000000000000000     
 -0.76888888888888884          0.0000000000000000     
 -0.75888888888888884          0.0000000000000000     
 -0.74888888888888883          0.0000000000000000     
 -0.73888888888888882          0.0000000000000000     
 -0.72888888888888881          0.0000000000000000     
 -0.71888888888888880          0.0000000000000000     
 -0.70888888888888890          0.0000000000000000     
 -0.69888888888888889          0.0000000000000000     
 -0.68888888888888888          0.0000000000000000     
 -0.67888888888888888          0.0000000000000000     
 -0.66888888888888887          0.0000000000000000     
 -0.65888888888888886          0.0000000000000000     
 -0.64888888888888885          0.0000000000000000     
 -0.63888888888888884          0.0000000000000000     
 -0.62888888888888883          0.0000000000000000     
 -0.61888888888888882          0.0000000000000000     
 -0.60888888888888881          0.0000000000000000     
 -0.59888888888888880          0.0000000000000000     
 -0.58888888888888880          0.0000000000000000     
 -0.57888888888888879          0.0000000000000000     
 -0.56888888888888878          0.0000000000000000     
 -0.55888888888888877          0.0000000000000000     
 -0.54888888888888876          0.0000000000000000     
 -0.53888888888888875          0.0000000000000000     
 -0.52888888888888885          0.0000000000000000     
 -0.51888888888888884          0.0000000000000000     
 -0.50888888888888884          0.0000000000000000     
 -0.49888888888888883          0.0000000000000000     
 -0.48888888888888882          0.0000000000000000     
 -0.47888888888888881          0.0000000000000000     
 -0.46888888888888886          0.0000000000000000     
 -0.45888888888888885          0.0000000000000000     
 -0.44888888888888884          0.0000000000000000     
 -0.43888888888888883          0.0000000000000000     
 -0.42888888888888882          0.0000000000000000     
 -0.41888888888888881          0.0000000000000000     
 -0.40888888888888886          0.0000000000000000     
 -0.39888888888888885          0.0000000000000000     
 -0.38888888888888884          0.0000000000000000     
 -0.37888888888888883          0.0000000000000000     
 -0.36888888888888882          0.0000000000000000     
 -0.35888888888888881          0.0000000000000000     
 -0.34888888888888880          0.0000000000000000     
 -0.33888888888888880          0.0000000000000000     
 -0.32888888888888879          0.0000000000000000     
 -0.31888888888888878          0.0000000000000000     
 -0.30888888888888888          0.0000000000000000     
 -0.29888888888888887          0.0000000000000000     
 -0.28888888888888886          0.0000000000000000     
 -0.27888888888888885          0.0000000000000000     
 -0.26888888888888884          0.0000000000000000     
 -0.25888888888888884          0.0000000000000000     
 -0.24888888888888883          0.0000000000000000     
 -0.23888888888888882          0.0000000000000000     
 -0.22888888888888881          0.0000000000000000     
 -0.21888888888888880          0.0000000000000000     
 -0.20888888888888879          0.0000000000000000     
 -0.19888888888888878          0.0000000000000000     
 -0.18888888888888877          0.0000000000000000     
 -0.17888888888888888          0.0000000000000000     
 -0.16888888888888887          0.0000000000000000     
 -0.15888888888888886          0.0000000000000000     
 -0.14888888888888885          0.0000000000000000     
 -0.13888888888888884          0.0000000000000000     
 -0.12888888888888883          0.0000000000000000     
 -0.11888888888888882          0.0000000000000000     
 -0.10888888888888881          0.0000000000000000     
  -9.8888888888888804E-002     0.0000000000000000     
  -8.8888888888888795E-002     0.0000000000000000     
  -7.8888888888888786E-002     0.0000000000000000     
  -6.8888888888888777E-002     0.0000000000000000     
  -5.8888888888888768E-002     0.0000000000000000     
  -4.8888888888888871E-002     0.0000000000000000     
  -3.8888888888888862E-002     0.0000000000000000     
  -2.8888888888888853E-002     0.0000000000000000     
  -1.8888888888888844E-002     0.0000000000000000     
  -8.8888888888888351E-003     0.0000000000000000     
   1.1111111111111738E-003     0.0000000000000000     
   1.1111111111111183E-002     0.0000000000000000     
   2.1111111111111192E-002     0.0000000000000000     
   3.1111111111111200E-002     0.0000000000000000     
   4.1111111111111209E-002     0.0000000000000000     
   5.1111111111111218E-002     0.0000000000000000     
   6.1111111111111227E-002     0.0000000000000000     
   7.1111111111111125E-002     0.0000000000000000     
   8.1111111111111134E-002     0.0000000000000000     
   9.1111111111111143E-002     0.0000000000000000     
  0.10111111111111115          0.0000000000000000     
  0.11111111111111116          0.0000000000000000     
  0.12111111111111117          0.0000000000000000     
  0.13111111111111118          0.0000000000000000     
  0.14111111111111119          0.0000000000000000     
  0.15111111111111120          0.0000000000000000     
  0.16111111111111120          0.0000000000000000     
  0.17111111111111121          0.0000000000000000     
  0.18111111111111122          0.0000000000000000     
  0.19111111111111123          0.0000000000000000     
  0.20111111111111124          0.0000000000000000     
  0.21111111111111125          0.0000000000000000     
  0.22111111111111126          0.0000000000000000     
  0.23111111111111127          0.0000000000000000     
  0.24111111111111128          0.0000000000000000     
  0.25111111111111128          0.0000000000000000     
  0.26111111111111129          0.0000000000000000     
  0.27111111111111108          0.0000000000000000     
  0.28111111111111109          0.0000000000000000     
  0.29111111111111110          0.0000000000000000     
  0.30111111111111111          0.0000000000000000     
  0.31111111111111112          0.0000000000000000     
  0.32111111111111112          0.0000000000000000     
  0.33111111111111113          0.0000000000000000     
  0.34111111111111114          0.0000000000000000     
  0.35111111111111115          0.0000000000000000     
  0.36111111111111116          0.0000000000000000     
  0.37111111111111117          0.0000000000000000     
  0.38111111111111118          0.0000000000000000     
  0.39111111111111119          0.0000000000000000     
  0.40111111111111120          0.0000000000000000     
  0.41111111111111120          0.0000000000000000     
  0.42111111111111121          0.0000000000000000     
  0.43111111111111122          0.0000000000000000     
  0.44111111111111123          0.0000000000000000     
  0.45111111111111124          0.0000000000000000     
  0.46111111111111125          0.0000000000000000     
  0.47111111111111126          0.0000000000000000     
  0.48111111111111127          0.0000000000000000     
  0.49111111111111128          0.0000000000000000     
  0.50111111111111128          0.0000000000000000     
  0.51111111111111129          0.0000000000000000     
  0.52111111111111108          0.0000000000000000     
  0.53111111111111109          0.0000000000000000     
  0.54111111111111110          0.0000000000000000     
  0.55111111111111111          0.0000000000000000     
  0.56111111111111112          0.0000000000000000     
  0.57111111111111112          0.0000000000000000     
  0.58111111111111113          0.0000000000000000     
  0.59111111111111114          0.0000000000000000     
  0.60111111111111115          0.0000000000000000     
  0.61111111111111116          0.0000000000000000     
  0.62111111111111117          0.0000000000000000     
  0.63111111111111118          0.0000000000000000     
  0.64111111111111119          0.0000000000000000     
  0.65111111111111120          0.0000000000000000     
  0.66111111111111120          0.0000000000000000     
  0.67111111111111121          0.0000000000000000     
  0.68111111111111122          0.0000000000000000     
  0.69111111111111123          0.0000000000000000     
  0.70111111111111124          0.0000000000000000     
  0.71111111111111125          0.0000000000000000     
  0.72111111111111126          0.0000000000000000     
  0.73111111111111127          0.0000000000000000     
  0.74111111111111128          0.0000000000000000     
  0.75111111111111128          0.0000000000000000     
  0.76111111111111129          0.0000000000000000     
  0.77111111111111130          0.0000000000000000     
  0.78111111111111109          0.0000000000000000     
  0.79111111111111110          0.0000000000000000     
  0.80111111111111111          0.0000000000000000     
  0.81111111111111112          0.0000000000000000     
  0.82111111111111112          0.0000000000000000     
  0.83111111111111113          0.0000000000000000     
  0.84111111111111114          0.0000000000000000     
  0.85111111111111115          0.0000000000000000     
  0.86111111111111116          0.0000000000000000     
  0.87111111111111117          0.0000000000000000     
  0.88111111111111118          0.0000000000000000     
  0.89111111111111119          0.0000000000000000     
  0.90111111111111120          0.0000000000000000     
  0.91111111111111120          0.0000000000000000     
  0.92111111111111121          0.0000000000000000     
  0.93111111111111122          0.0000000000000000     
  0.94111111111111123          0.0000000000000000     
  0.95111111111111124          0.0000000000000000     
  0.96111111111111125          0.0000000000000000     
  0.97111111111111126          0.0000000000000000     
  0.98111111111111127          0.0000000000000000     
  0.99111111111111128          0.0000000000000000     
   1.0011111111111113          0.0000000000000000     
   1.0111111111111113          0.0000000000000000     
   1.0211111111111113          0.0000000000000000     
   1.0311111111111111          0.0000000000000000     
   1.0411111111111111          0.0000000000000000     
   1.0511111111111111          0.0000000000000000     
   1.0611111111111111          0.0000000000000000     
   1.0711111111111111          0.0000000000000000     
   1.0811111111111111          0.0000000000000000     
   1.0911111111111111          0.0000000000000000     
   1.1011111111111112          0.0000000000000000     
   1.1111111111111112          0.0000000000000000     
   1.1211111111111114          0.0000000000000000     
   1.1311111111111112          0.0000000000000000     
   1.1411111111111114          0.0000000000000000     
   1.1511111111111112          0.0000000000000000     
   1.1611111111111110          0.0000000000000000     
   1.1711111111111112          0.0000000000000000     
   1.1811111111111110          0.0000000000000000     
   1.1911111111111112          0.0000000000000000     
   1.2011111111111110          0.0000000000000000     
   1.2111111111111112          0.0000000000000000     
   1.2211111111111110          0.0000000000000000     
   1.2311111111111113         -3.3139237317894383E-038
   1.2411111111111111         -3.0260776892983132E-038
   1.2511111111111113          5.3260019538641204E-038
   1.2611111111111111          2.7687097202504371E-037
   1.2711111111111113          4.6298999912703844E-037
   1.2811111111111111          9.9295504714609381E-038
   1.2911111111111113         -2.5222766996910119E-037
   1.3011111111111111         -2.6601512403230707E-037
   1.3111111111111113         -1.0440150000697758E-037
   1.3211111111111111         -6.9905332136735829E-037
   1.3311111111111114         -2.2438080680504345E-036
   1.3411111111111111         -2.9075144988550533E-036
   1.3511111111111114          9.5807820814022744E-037
   1.3611111111111112          9.5750393136669416E-036
   1.3711111111111114          1.4962011225615224E-035
   1.3811111111111112          3.8897311828716594E-036
   1.3911111111111114         -2.6763891281952598E-035
   1.4011111111111112         -5.5334703347998771E-035
   1.4111111111111114         -4.0776383744338547E-035
   1.4211111111111112          4.2207964246056648E-035
   1.4311111111111110          1.5570217053682965E-034
   1.4411111111111112          1.8610227967958014E-034
   1.4511111111111110          1.6887969466814714E-035
   1.4611111111111112         -3.2722592106387630E-034
   1.4711111111111110         -5.8538337565778514E-034
   1.4811111111111113         -3.7232704495216100E-034
   1.4911111111111111          4.6438845643070087E-034
   1.5011111111111113          1.4671299074864891E-033
   1.5111111111111111          1.6001189098537917E-033
   1.5211111111111113         -1.2724588594407025E-035
   1.5311111111111111         -2.9379023780925888E-033
   1.5411111111111113         -4.8798914120219803E-033
   1.5511111111111111         -2.8310539823646739E-033
   1.5611111111111113          4.0724586687795517E-033
   1.5711111111111111          1.1910065416177230E-032
   1.5811111111111114          1.2664244224565579E-032
   1.5911111111111111         -3.9809109161898975E-035
   1.6011111111111114         -2.2703630134896128E-032
   1.6111111111111112         -3.8347840700872517E-032
   1.6211111111111114         -2.4732812564323717E-032
   1.6311111111111112          2.5891397428909426E-032
   1.6411111111111114          8.8094532406273314E-032
   1.6511111111111112          1.0570872750616988E-031
   1.6611111111111114          2.7404749427309178E-032
   1.6711111111111112         -1.3799603084020565E-031
   1.6811111111111110         -2.8821757908715536E-031
   1.6911111111111112         -2.6336443116613796E-031
   1.7011111111111110          3.8575004984168925E-032
   1.7111111111111112          5.2487919846137004E-031
   1.7211111111111110          8.6414661641377603E-031
   1.7311111111111113          6.3416053541833305E-031
   1.7411111111111111         -3.5246582150366460E-031
   1.7511111111111113         -1.7244904615828679E-030
   1.7611111111111111         -2.5145206545445297E-030
   1.7711111111111113         -1.6152189517586778E-030
   1.7811111111111111          1.3561038856509884E-030
   1.7911111111111113          5.2573433768775143E-030
   1.8011111111111111          7.3845788917526724E-030
   1.8111111111111113          4.6978543333437538E-030
   1.8211111111111111         -3.8940953067599684E-030
   1.8311111111111114         -1.5349691749421651E-029
   1.8411111111111111         -2.2203063803642251E-029
   1.8511111111111114         -1.5604105590442436E-029
   1.8611111111111112          8.5379122588359698E-030
   1.8711111111111114          4.3074292883961042E-029
   1.8811111111111112          6.7617426269242854E-029
   1.8911111111111114          5.5538059861887949E-029
   1.9011111111111112         -9.4686540156475588E-030
   1.9111111111111114         -1.1363612599116617E-028
   1.9211111111111112         -2.0322819625874865E-028
   1.9311111111111110         -1.9858491157051470E-028
   1.9411111111111112         -3.7287655810117306E-029
   1.9511111111111110          2.6693889770992630E-028
   1.9611111111111112          5.8335031345929415E-028
   1.9711111111111110          6.8330010719016409E-028
   1.9811111111111113          3.4384520447157031E-028
   1.9911111111111111         -4.8567157631884564E-028
   2.0011111111111113         -1.5341239565119464E-027
   2.0111111111111111         -2.1932677021886447E-027
   2.0211111111111113         -1.7307269296878787E-027
   2.0311111111111111          2.7611215018329131E-028
   2.0411111111111113          3.4487038179579250E-027
   2.0511111111111111          6.3582728221197980E-027
   2.0611111111111113          6.8340468518614432E-027
   2.0711111111111111          2.9594230489232977E-027
   2.0811111111111114         -5.4892728163548667E-027
   2.0911111111111111         -1.5839454915759099E-026
   2.1011111111111114         -2.2476741060782164E-026
   2.1111111111111112         -1.8674753513103589E-026
   2.1211111111111114         -2.4139451848554063E-028
   2.1311111111111112          3.0258029592771248E-026
   2.1411111111111114          6.1015759428169252E-026
   2.1511111111111112          7.2795659088463249E-026
   2.1611111111111114          4.6416452403687894E-026
   2.1711111111111112         -2.5414969058074486E-026
   2.1811111111111114         -1.2661414744023545E-025
   2.1911111111111112         -2.1367527747885184E-025
   2.2011111111111110         -2.2567153456835434E-025
   2.2111111111111112         -1.1024305265965187E-025
   2.2211111111111110          1.4074995554206871E-025
   2.2311111111111113          4.6122103748046646E-025
   2.2411111111111111          7.0677001796764369E-025
   2.2511111111111113          6.9287019021003631E-025
   2.2611111111111111          2.7659768290006117E-025
   2.2711111111111113         -5.4034773057866005E-025
   2.2811111111111111         -1.5328580088631337E-024
   2.2911111111111113         -2.2536698988551311E-024
   2.3011111111111111         -2.1558075620427122E-024
   2.3111111111111113         -8.3341251509666052E-025
   2.3211111111111111          1.6861111016041643E-024
   2.3311111111111114          4.7263579561444661E-024
   2.3411111111111111          6.9740668275692946E-024
   2.3511111111111114          6.8276290000113078E-024
   2.3611111111111112          3.0712153643117893E-024
   2.3711111111111114         -4.3068480376351738E-024
   2.3811111111111112         -1.3492908848006321E-023
   2.3911111111111114         -2.0830287143196963E-023
   2.4011111111111112         -2.1705523584374244E-023
   2.4111111111111114         -1.2337498201148029E-023
   2.4211111111111112          7.9703744850362759E-024
   2.4311111111111114          3.4980613736952750E-023
   2.4411111111111112          5.9145338618150218E-023
   2.4511111111111110          6.7564503960775780E-023
   2.4611111111111112          4.8435532621485437E-023
   2.4711111111111110         -2.9345984605933515E-024
   2.4811111111111113         -7.8614728681592394E-023
   2.4911111111111111         -1.5577202106357086E-022
   2.5011111111111113         -2.0010392134420194E-022
   2.5111111111111111         -1.7596374265893133E-022
   2.5211111111111113         -6.1612504254672553E-023
   2.5311111111111111          1.3489493711375438E-022
   2.5411111111111113          3.6585493188462274E-022
   2.5511111111111111          5.4693672836598110E-022
   2.5611111111111113          5.7724266913000810E-022
   2.5711111111111111          3.7503770196172776E-022
   2.5811111111111114         -7.9385830750115071E-023
   2.5911111111111111         -7.0867855845945146E-022
   2.6011111111111114         -1.3289804617271412E-021
   2.6111111111111112         -1.6803542045548622E-021
   2.6211111111111114         -1.5008405625788873E-021
   2.6311111111111112         -6.3172642671081563E-022
   2.6411111111111114          8.7572456306188307E-022
   2.6511111111111112          2.6939378274937622E-021
   2.6611111111111114          4.2351497920905132E-021
   2.6711111111111112          4.7759187136502716E-021
   2.6811111111111114          3.6837818111388522E-021
   2.6911111111111112          6.9819198432174612E-022
   2.7011111111111110         -3.8208344910876650E-021
   2.7111111111111112         -8.7830142454044182E-021
   2.7211111111111110         -1.2491085601307779E-020
   2.7311111111111113         -1.3038950585456377E-020
   2.7411111111111111         -8.9401139383041377E-021
   2.7511111111111113          1.5920096591573866E-022
   2.7611111111111111          1.2911917776911967E-020
   2.7711111111111113          2.6107498727205668E-020
   2.7811111111111111          3.5123407128102811E-020
   2.7911111111111113          3.5054208299983922E-020
   2.8011111111111111          2.2363107356945267E-020
   2.8111111111111113         -3.3404422821537834E-021
   2.8211111111111111         -3.7979794261393395E-020
   2.8311111111111114         -7.2777211448793619E-020
   2.8411111111111111         -9.5581934702027035E-020
   2.8511111111111114         -9.3860177644043515E-020
   2.8611111111111112         -5.8906491175530392E-020
   2.8711111111111114          9.7413377201704794E-021
   2.8811111111111112          1.0113022281133233E-019
   2.8911111111111114          1.9249117116977490E-019
   2.9011111111111112          2.5272776877029056E-019
   2.9111111111111114          2.4997770342628145E-019
   2.9211111111111112          1.6211279515270303E-019
   2.9311111111111114         -1.2343748901458173E-020
   2.9411111111111112         -2.4641470048589171E-019
   2.9511111111111110         -4.8367721618055530E-019
   2.9611111111111112         -6.4675437468052446E-019
   2.9711111111111110         -6.5569661069252896E-019
   2.9811111111111113         -4.5349608396548612E-019
   2.9911111111111111         -3.2680380887715729E-020
   3.0011111111111113          5.4544036267684051E-019
   3.0111111111111111          1.1476474424562045E-018
   3.0211111111111113          1.5881391098190148E-018
   3.0311111111111111          1.6713073641226995E-018
   3.0411111111111113          1.2515996436260498E-018
   3.0511111111111111          2.9648877680043108E-019
   3.0611111111111113         -1.0668449247044214E-018
   3.0711111111111111         -2.5412748244382217E-018
   3.0811111111111114         -3.7005206832509150E-018
   3.0911111111111111         -4.0835603143737016E-018
   3.1011111111111114         -3.3288161148570957E-018
   3.1111111111111112         -1.3174328806276139E-018
   3.1211111111111109          1.7169397131923764E-018
   3.1311111111111116          5.1561604515875373E-018
   3.1411111111111114          8.0758031978439992E-018
   3.1511111111111112          9.4404237338880428E-018
   3.1611111111111110          8.3880440267480659E-018
   3.1711111111111117          4.5405804979413933E-018
   3.1811111111111114         -1.7481231815147067E-018
   3.1911111111111112         -9.2991967063650267E-018
   3.2011111111111110         -1.6239656463171818E-017
   3.2111111111111108         -2.0375688566112515E-017
   3.2211111111111115         -1.9757624175496568E-017
   3.2311111111111113         -1.3315320707710036E-017
   3.2411111111111111         -1.3920339219295103E-018
   3.2511111111111108          1.4005860182056042E-017
   3.2611111111111115          2.9384099027121262E-017
   3.2711111111111113          4.0408044238456319E-017
   3.2811111111111111          4.2941450300522477E-017
   3.2911111111111109          3.4263210635375495E-017
   3.3011111111111116          1.4151164382818332E-017
   3.3111111111111113         -1.4504855232217431E-017
   3.3211111111111111         -4.5832750943860728E-017
   3.3311111111111109         -7.1965315479599346E-017
   3.3411111111111116         -8.4778905650862281E-017
   3.3511111111111114         -7.8045979719480757E-017
   3.3611111111111112         -4.9485795595854162E-017
   3.3711111111111109         -2.1330341019782414E-018
   3.3811111111111116          5.5469107295082982E-017
   3.3911111111111114          1.1050655865931129E-016
   3.4011111111111112          1.4847136283119218E-016
   3.4111111111111110          1.5661138915897541E-016
   3.4211111111111117          1.2748257461250026E-016
   3.4311111111111114          6.1694359397316211E-017
   3.4411111111111112         -3.0975961793865261E-017
   3.4511111111111110         -1.3260962533756114E-016
   3.4611111111111117         -2.2033648357755421E-016
   3.4711111111111115         -2.7116378083851217E-016
   3.4811111111111113         -2.6744665615882548E-016
   3.4911111111111111         -2.0173975610657783E-016
   3.5011111111111108         -7.9799079839946042E-017
   3.5111111111111115          7.9155103189461259E-017
   3.5211111111111113          2.4521857932896171E-016
   3.5311111111111111          3.8323373070788338E-016
   3.5411111111111109          4.5984021102072996E-016
   3.5511111111111116          4.5069754914630385E-016
   3.5611111111111113          3.4634441353355414E-016
   3.5711111111111111          1.5542223431036918E-016
   3.5811111111111109         -9.5461797678196824E-017
   3.5911111111111116         -3.6526726192411321E-016
   3.6011111111111114         -6.0482599356930129E-016
   3.6111111111111112         -7.6482278812999493E-016
   3.6211111111111109         -8.0415232781602501E-016
   3.6311111111111116         -6.9742607058286476E-016
   3.6411111111111114         -4.4066597913329356E-016
   3.6511111111111112         -5.4546076301869759E-017
   3.6611111111111110          4.1520414226904969E-016
   3.6711111111111117          9.0050529018151707E-016
   3.6811111111111114          1.3170099191921777E-015
   3.6911111111111112          1.5738055330859744E-015
   3.7011111111111110          1.5867502082232698E-015
   3.7111111111111117          1.2948405258636909E-015
   3.7211111111111115          6.7797591771286028E-016
   3.7311111111111113         -2.2684156426356922E-016
   3.7411111111111111         -1.3150580376443486E-015
   3.7511111111111108         -2.4146825625169857E-015
   3.7611111111111115         -3.3012342554419091E-015
   3.7711111111111113         -3.7297232359859156E-015
   3.7811111111111111         -3.4822496431931261E-015
   3.7911111111111109         -2.4251521015032857E-015
   3.8011111111111116         -5.6490903653435036E-016
   3.8111111111111113          1.9114065019610552E-015
   3.8211111111111111          4.6260179253866315E-015
   3.8311111111111109          7.0424873039058502E-015
   3.8411111111111116          8.5445829217981571E-015
   3.8511111111111114          8.5562042138344861E-015
   3.8611111111111112          6.6847886784121482E-015
   3.8711111111111109          2.8601128372807887E-015
   3.8811111111111116         -2.5657629588792885E-015
   3.8911111111111114         -8.7909094202221275E-015
   3.9011111111111112         -1.4632788931283683E-014
   3.9111111111111110         -1.8701797990555886E-014
   3.9211111111111117         -1.9663895281497000E-014
   3.9311111111111114         -1.6552902508426039E-014
   3.9411111111111112         -9.0728748299018225E-015
   3.9511111111111110          2.1798820649227783E-015
   3.9611111111111117          1.5642511496717117E-014
   3.9711111111111115          2.8907557364553707E-014
   3.9811111111111113          3.9056458804934135E-014
   3.9911111111111111          4.3176962385201717E-014
   4.0011111111111113          3.8991830191058632E-014
   4.0111111111111111          2.5488110767476514E-014
   4.0211111111111109          3.4138796847896008E-015
   4.0311111111111106         -2.4489697785954820E-014
   4.0411111111111104         -5.3625605068692919E-014
   4.0511111111111120         -7.8097779437034942E-014
   4.0611111111111118         -9.1662585182707146E-014
   4.0711111111111116         -8.8964514195159078E-014
   4.0811111111111114         -6.6863649220236937E-014
   4.0911111111111111         -2.5601187971869069E-014
   4.1011111111111109          3.0476262382868671E-014
   4.1111111111111107          9.2888424816500725E-014
   4.1211111111111105          1.4986179886020828E-013
   4.1311111111111121          1.8807173971392005E-013
   4.1411111111111119          1.9513455792614237E-013
   4.1511111111111116          1.6249543757004131E-013
   4.1611111111111114          8.8178372752416995E-014
   4.1711111111111112         -2.1243782828781616E-014
   4.1811111111111110         -1.5009171748341099E-013
   4.1911111111111108         -2.7491179363341167E-013
   4.2011111111111106         -3.6786933633840835E-013
   4.2111111111111121         -4.0194765376332098E-013
   4.2211111111111119         -3.5720891847744463E-013
   4.2311111111111117         -2.2691916433999898E-013
   4.2411111111111115         -2.2040214027766944E-014
   4.2511111111111113          2.2741731458067460E-013
   4.2611111111111111          4.7529395783701966E-013
   4.2711111111111109          6.6672741546452974E-013
   4.2811111111111106          7.4929526559103232E-013
   4.2911111111111104          6.8580449479049843E-013
   4.3011111111111120          4.6578723950779777E-013
   4.3111111111111118          1.1252980426819381E-013
   4.3211111111111116         -3.1691091265974303E-013
   4.3311111111111114         -7.3982947589382175E-013
   4.3411111111111111         -1.0633455921338353E-012
   4.3511111111111109         -1.2045017760975441E-012
   4.3611111111111107         -1.1107565605142367E-012
   4.3711111111111105         -7.7598105892306979E-013
   4.3811111111111121         -2.4747039270231475E-013
   4.3911111111111119          3.7895356882859665E-013
   4.4011111111111116          9.7611751580933825E-013
   4.4111111111111114          1.4122263471486041E-012
   4.4211111111111112          1.5815654992243355E-012
   4.4311111111111110          1.4318699221096964E-012
   4.4411111111111108          9.8114506970337079E-013
   4.4511111111111106          3.1877199989892302E-013
   4.4611111111111121         -4.1078647644923749E-013
   4.4711111111111119         -1.0393402718328337E-012
   4.4811111111111117         -1.4153516683310108E-012
   4.4911111111111115         -1.4445058647491460E-012
   4.5011111111111113         -1.1201646164457624E-012
   4.5111111111111111         -5.3388321324607246E-013
   4.5211111111111109          1.4053123627896097E-013
   4.5311111111111106          6.8940128128761047E-013
   4.5411111111111104          9.1929046840133477E-013
   4.5511111111111120          7.1838189693793075E-013