 -0.88888888888888884          0.0000000000000000     
 -0.87888888888888883          0.0000000000000000     
 -0.86888888888888882          0.0000000000000000     
 -0.85888888888888881          0.0000000000000000     
 -0.84888888888888880          0.0000000000000000     
 -0.83888888888888880          0.0000000000000000     
 -0.82888888888888879          0.0000000000000000     
 -0.81888888888888878          0.0000000000000000     
 -0.80888888888888888          0.0000000000000000     
 -0.79888888888888887          0.0000000000000000     
 -0.78888888888888886          0.0000000000000000     
 -0.77888888888888885          0.0000000000000000     
 -0.76888888888888884          0.0000000000000000     
 -0.75888888888888884          0.0000000000000000     
 -0.74888888888888883          0.0000000000000000     
 -0.73888888888888882          0.0000000000000000     
 -0.72888888888888881          0.0000000000000000     
 -0.71888888888888880          0.0000000000000000     
 -0.70888888888888890          0.0000000000000000     
 -0.69888888888888889          0.0000000000000000     
 -0.68888888888888888          0.0000000000000000     
 -0.67888888888888888          0.0000000000000000     
 -0.66888888888888887          0.0000000000000000     
 -0.65888888888888886          0.0000000000000000     
 -0.64888888888888885          0.0000000000000000     
 -0.63888888888888884          0.0000000000000000     
 -0.62888888888888883          0.0000000000000000     
 -0.61888888888888882          0.0000000000000000     
 -0.60888888888888881          0.0000000000000000     
 -0.59888888888888880          0.0000000000000000     
 -0.58888888888888880          0.0000000000000000     
 -0.57888888888888879          0.0000000000000000     
 -0.56888888888888878          0.0000000000000000     
 -0.55888888888888877          0.0000000000000000     
 -0.54888888888888876          0.0000000000000000     
 -0.53888888888888875          0.0000000000000000     
 -0.52888888888888885          0.0000000000000000     
 -0.51888888888888884          0.0000000000000000     
 -0.50888888888888884          0.0000000000000000     
 -0.49888888888888883          0.0000000000000000     
 -0.48888888888888882          0.0000000000000000     
 -0.47888888888888881          0.0000000000000000     
 -0.46888888888888886          0.0000000000000000     
 -0.45888888888888885          0.0000000000000000     
 -0.44888888888888884          0.0000000000000000     
 -0.43888888888888883          0.0000000000000000     
 -0.42888888888888882          0.0000000000000000     
 -0.41888888888888881          0.0000000000000000     
 -0.40888888888888886          0.0000000000000000     
 -0.39888888888888885          0.0000000000000000     
 -0.38888888888888884          0.0000000000000000     
 -0.37888888888888883          0.0000000000000000     
 -0.36888888888888882          0.0000000000000000     
 -0.35888888888888881          0.0000000000000000     
 -0.34888888888888880          0.0000000000000000     
 -0.33888888888888880          0.0000000000000000     
 -0.32888888888888879          0.0000000000000000     
 -0.31888888888888878          0.0000000000000000     
 -0.30888888888888888          0.0000000000000000     
 -0.29888888888888887          0.0000000000000000     
 -0.28888888888888886          0.0000000000000000     
 -0.27888888888888885          0.0000000000000000     
 -0.26888888888888884          0.0000000000000000     
 -0.25888888888888884          0.0000000000000000     
 -0.24888888888888883          0.0000000000000000     
 -0.23888888888888882          0.0000000000000000     
 -0.22888888888888881          0.0000000000000000     
 -0.21888888888888880          0.0000000000000000     
 -0.20888888888888879          0.0000000000000000     
 -0.19888888888888878          0.0000000000000000     
 -0.18888888888888877          0.0000000000000000     
 -0.17888888888888888          0.0000000000000000     
 -0.16888888888888887          0.0000000000000000     
 -0.15888888888888886          0.0000000000000000     
 -0.14888888888888885          0.0000000000000000     
 -0.13888888888888884          0.0000000000000000     
 -0.12888888888888883          0.0000000000000000     
 -0.11888888888888882          0.0000000000000000     
 -0.10888888888888881          0.0000000000000000     
  -9.8888888888888804E-002     0.0000000000000000     
  -8.8888888888888795E-002     0.0000000000000000     
  -7.8888888888888786E-002     0.0000000000000000     
  -6.8888888888888777E-002     0.0000000000000000     
  -5.8888888888888768E-002     0.0000000000000000     
  -4.8888888888888871E-002     0.0000000000000000     
  -3.8888888888888862E-002     0.0000000000000000     
  -2.8888888888888853E-002     0.0000000000000000     
  -1.8888888888888844E-002     0.0000000000000000     
  -8.8888888888888351E-003     0.0000000000000000     
   1.1111111111111738E-003     0.0000000000000000     
   1.1111111111111183E-002     0.0000000000000000     
   2.1111111111111192E-002     0.0000000000000000     
   3.1111111111111200E-002     0.0000000000000000     
   4.1111111111111209E-002     0.0000000000000000     
   5.1111111111111218E-002     0.0000000000000000     
   6.1111111111111227E-002     0.0000000000000000     
   7.1111111111111125E-002     0.0000000000000000     
   8.1111111111111134E-002     0.0000000000000000     
   9.1111111111111143E-002     0.0000000000000000     
  0.10111111111111115          0.0000000000000000     
  0.11111111111111116          0.0000000000000000     
  0.12111111111111117          0.0000000000000000     
  0.13111111111111118          0.0000000000000000     
  0.14111111111111119          0.0000000000000000     
  0.15111111111111120          0.0000000000000000     
  0.16111111111111120          0.0000000000000000     
  0.17111111111111121          0.0000000000000000     
  0.18111111111111122          0.0000000000000000     
  0.19111111111111123          0.0000000000000000     
  0.20111111111111124          0.0000000000000000     
  0.21111111111111125          0.0000000000000000     
  0.22111111111111126          0.0000000000000000     
  0.23111111111111127          0.0000000000000000     
  0.24111111111111128          0.0000000000000000     
  0.25111111111111128          0.0000000000000000     
  0.26111111111111129          0.0000000000000000     
  0.27111111111111108          0.0000000000000000     
  0.28111111111111109          0.0000000000000000     
  0.29111111111111110          0.0000000000000000     
  0.30111111111111111          0.0000000000000000     
  0.31111111111111112          0.0000000000000000     
  0.32111111111111112          0.0000000000000000     
  0.33111111111111113          0.0000000000000000     
  0.34111111111111114          0.0000000000000000     
  0.35111111111111115          0.0000000000000000     
  0.36111111111111116          0.0000000000000000     
  0.37111111111111117          0.0000000000000000     
  0.38111111111111118          0.0000000000000000     
  0.39111111111111119          0.0000000000000000     
  0.40111111111111120          0.0000000000000000     
  0.41111111111111120          0.0000000000000000     
  0.42111111111111121          0.0000000000000000     
  0.43111111111111122          0.0000000000000000     
  0.44111111111111123          0.0000000000000000     
  0.45111111111111124          0.0000000000000000     
  0.46111111111111125          0.0000000000000000     
  0.47111111111111126          0.0000000000000000     
  0.48111111111111127          0.0000000000000000     
  0.49111111111111128          0.0000000000000000     
  0.50111111111111128          0.0000000000000000     
  0.51111111111111129          0.0000000000000000     
  0.52111111111111108          0.0000000000000000     
  0.53111111111111109          0.0000000000000000     
  0.54111111111111110          0.0000000000000000     
  0.55111111111111111          0.0000000000000000     
  0.56111111111111112          0.0000000000000000     
  0.57111111111111112          0.0000000000000000     
  0.58111111111111113          0.0000000000000000     
  0.59111111111111114          0.0000000000000000     
  0.60111111111111115          0.0000000000000000     
  0.61111111111111116          0.0000000000000000     
  0.62111111111111117          0.0000000000000000     
  0.63111111111111118          0.0000000000000000     
  0.64111111111111119          0.0000000000000000     
  0.65111111111111120          0.0000000000000000     
  0.66111111111111120          0.0000000000000000     
  0.67111111111111121          0.0000000000000000     
  0.68111111111111122          0.0000000000000000     
  0.69111111111111123          0.0000000000000000     
  0.70111111111111124          0.0000000000000000     
  0.71111111111111125          0.0000000000000000     
  0.72111111111111126          0.0000000000000000     
  0.73111111111111127          0.0000000000000000     
  0.74111111111111128          0.0000000000000000     
  0.75111111111111128          0.0000000000000000     
  0.76111111111111129          0.0000000000000000     
  0.77111111111111130          0.0000000000000000     
  0.78111111111111109          0.0000000000000000     
  0.79111111111111110          0.0000000000000000     
  0.80111111111111111          0.0000000000000000     
  0.81111111111111112          0.0000000000000000     
  0.82111111111111112          0.0000000000000000     
  0.83111111111111113          0.0000000000000000     
  0.84111111111111114          0.0000000000000000     
  0.85111111111111115          0.0000000000000000     
  0.86111111111111116          0.0000000000000000     
  0.87111111111111117          0.0000000000000000     
  0.88111111111111118          0.0000000000000000     
  0.89111111111111119          0.0000000000000000     
  0.90111111111111120          0.0000000000000000     
  0.91111111111111120          0.0000000000000000     
  0.92111111111111121          0.0000000000000000     
  0.93111111111111122          0.0000000000000000     
  0.94111111111111123          0.0000000000000000     
  0.95111111111111124          0.0000000000000000     
  0.96111111111111125          0.0000000000000000     
  0.97111111111111126          0.0000000000000000     
  0.98111111111111127          0.0000000000000000     
  0.99111111111111128          0.0000000000000000     
   1.0011111111111113          0.0000000000000000     
   1.0111111111111113          0.0000000000000000     
   1.0211111111111113          0.0000000000000000     
   1.0311111111111111          0.0000000000000000     
   1.0411111111111111          0.0000000000000000     
   1.0511111111111111          0.0000000000000000     
   1.0611111111111111          0.0000000000000000     
   1.0711111111111111          0.0000000000000000     
   1.0811111111111111          0.0000000000000000     
   1.0911111111111111          0.0000000000000000     
   1.1011111111111112          0.0000000000000000     
   1.1111111111111112          0.0000000000000000     
   1.1211111111111114          0.0000000000000000     
   1.1311111111111112          0.0000000000000000     
   1.1411111111111114          0.0000000000000000     
   1.1511111111111112          0.0000000000000000     
   1.1611111111111110          0.0000000000000000     
   1.1711111111111112          0.0000000000000000     
   1.1811111111111110          0.0000000000000000     
   1.1911111111111112          0.0000000000000000     
   1.2011111111111110          0.0000000000000000     
   1.2111111111111112          0.0000000000000000     
   1.2211111111111110          0.0000000000000000     
   1.2311111111111113          0.0000000000000000     
   1.2411111111111111          0.0000000000000000     
   1.2511111111111113          0.0000000000000000     
   1.2611111111111111          0.0000000000000000     
   1.2711111111111113          0.0000000000000000     
   1.2811111111111111          0.0000000000000000     
   1.2911111111111113          0.0000000000000000     
   1.3011111111111111          0.0000000000000000     
   1.3111111111111113          0.0000000000000000     
   1.3211111111111111          0.0000000000000000     
   1.3311111111111114          0.0000000000000000     
   1.3411111111111111          0.0000000000000000     
   1.3511111111111114          0.0000000000000000     
   1.3611111111111112          0.0000000000000000     
   1.3711111111111114          0.0000000000000000     
   1.3811111111111112          0.0000000000000000     
   1.3911111111111114          0.0000000000000000     
   1.4011111111111112          0.0000000000000000     
   1.4111111111111114          0.0000000000000000     
   1.4211111111111112          0.0000000000000000     
   1.4311111111111110          0.0000000000000000     
   1.4411111111111112          0.0000000000000000     
   1.4511111111111110          0.0000000000000000     
   1.4611111111111112          0.0000000000000000     
   1.4711111111111110          0.0000000000000000     
   1.4811111111111113          0.0000000000000000     
   1.4911111111111111          0.0000000000000000     
   1.5011111111111113          0.0000000000000000     
   1.5111111111111111          0.0000000000000000     
   1.5211111111111113          0.0000000000000000     
   1.5311111111111111          0.0000000000000000     
   1.5411111111111113          0.0000000000000000     
   1.5511111111111111          0.0000000000000000     
   1.5611111111111113          0.0000000000000000     
   1.5711111111111111          0.0000000000000000     
   1.5811111111111114          0.0000000000000000     
   1.5911111111111111          0.0000000000000000     
   1.6011111111111114          0.0000000000000000     
   1.6111111111111112          0.0000000000000000     
   1.6211111111111114          0.0000000000000000     
   1.6311111111111112          0.0000000000000000     
   1.6411111111111114          0.0000000000000000     
   1.6511111111111112          0.0000000000000000     
   1.6611111111111114          0.0000000000000000     
   1.6711111111111112          0.0000000000000000     
   1.6811111111111110          0.0000000000000000     
   1.6911111111111112          0.0000000000000000     
   1.7011111111111110          0.0000000000000000     
   1.7111111111111112          0.0000000000000000     
   1.7211111111111110          0.0000000000000000     
   1.7311111111111113          0.0000000000000000     
   1.7411111111111111          0.0000000000000000     
   1.7511111111111113          0.0000000000000000     
   1.7611111111111111          0.0000000000000000     
   1.7711111111111113          0.0000000000000000     
   1.7811111111111111          0.0000000000000000     
   1.7911111111111113          0.0000000000000000     
   1.8011111111111111          0.0000000000000000     
   1.8111111111111113          0.0000000000000000     
   1.8211111111111111          0.0000000000000000     
   1.8311111111111114          0.0000000000000000     
   1.8411111111111111          0.0000000000000000     
   1.8511111111111114          0.0000000000000000     
   1.8611111111111112          0.0000000000000000     
   1.8711111111111114          0.0000000000000000     
   1.8811111111111112          0.0000000000000000     
   1.8911111111111114          0.0000000000000000     
   1.9011111111111112          0.0000000000000000     
   1.9111111111111114          0.0000000000000000     
   1.9211111111111112          0.0000000000000000     
   1.9311111111111110          0.0000000000000000     
   1.9411111111111112          0.0000000000000000     
   1.9511111111111110          0.0000000000000000     
   1.9611111111111112          0.0000000000000000     
   1.9711111111111110          0.0000000000000000     
   1.9811111111111113          0.0000000000000000     
   1.9911111111111111          0.0000000000000000     
   2.0011111111111113          0.0000000000000000     
   2.0111111111111111          0.0000000000000000     
   2.0211111111111113          0.0000000000000000     
   2.0311111111111111          0.0000000000000000     
   2.0411111111111113          0.0000000000000000     
   2.0511111111111111          0.0000000000000000     
   2.0611111111111113          0.0000000000000000     
   2.0711111111111111          0.0000000000000000     
   2.0811111111111114          0.0000000000000000     
   2.0911111111111111          0.0000000000000000     
   2.1011111111111114          0.0000000000000000     
   2.1111111111111112          0.0000000000000000     
   2.1211111111111114          0.0000000000000000     
   2.1311111111111112         -1.8745585742916982E-038
   2.1411111111111114         -3.4791508337179774E-038
   2.1511111111111112          0.0000000000000000     
   2.1611111111111114          5.9104852248921588E-038
   2.1711111111111112          4.2211156695428460E-038
   2.1811111111111114         -3.8439401570153896E-037
   2.1911111111111112         -1.3991818534411992E-036
   2.2011111111111110         -7.0647571907319398E-037
   2.2111111111111112          2.6158655901706680E-036
   2.2211111111111110          6.6578890829972331E-036
   2.2311111111111113          7.4744766830026300E-036
   2.2411111111111111          1.0194705063711497E-036
   2.2511111111111113         -1.2995949571187242E-035
   2.2611111111111111         -2.8177164951483454E-035
   2.2711111111111113         -3.2571289682636233E-035
   2.2811111111111111         -1.5432594962013928E-035
   2.2911111111111113          2.5092149478344330E-035
   2.3011111111111111          7.6009950022283886E-035
   2.3111111111111113          1.0970615565623339E-034
   2.3211111111111111          9.3413918748206686E-035
   2.3311111111111114          6.0265817488850247E-036
   2.3411111111111111         -1.4242970285178107E-034
   2.3511111111111114         -2.9853283864427352E-034
   2.3611111111111112         -3.7063176169308449E-034
   2.3711111111111114         -2.5971454839014162E-034
   2.3811111111111112          8.5605284263136930E-035
   2.3911111111111114          6.0680588776430783E-034
   2.4011111111111112          1.0998148306548986E-033
   2.4111111111111114          1.2460102365472011E-033
   2.4211111111111112          7.3212630477818156E-034
   2.4311111111111114         -5.5907383762321495E-034
   2.4411111111111112         -2.3574901037595838E-033
   2.4511111111111110         -3.9247405385254535E-033
   2.4611111111111112         -4.1946064908254033E-033
   2.4711111111111110         -2.1840640957239946E-033
   2.4811111111111113          2.3965558217992394E-033
   2.4911111111111111          8.5523649853892168E-033
   2.5011111111111113          1.3765860224806624E-032
   2.5111111111111111          1.4457923707645614E-032
   2.5211111111111113          7.3296693935936296E-033
   2.5311111111111111         -8.6003141346432272E-033
   2.5411111111111113         -2.9954490713790786E-032
   2.5511111111111111         -4.8100382479715413E-032
   2.5611111111111113         -5.0665258255963857E-032
   2.5711111111111111         -2.6182291138435663E-032
   2.5811111111111114          2.8762480667339445E-032
   2.5911111111111111          1.0241349945734029E-031
   2.6011111111111114          1.6494751846204539E-031
   2.6111111111111112          1.7420166826855490E-031
   2.6211111111111114          9.2118420015818874E-032
   2.6311111111111112         -9.1071859762866529E-032
   2.6411111111111114         -3.3433518471567777E-031
   2.6511111111111112         -5.3903530077013059E-031
   2.6611111111111114         -5.7086514872260036E-031
   2.6711111111111112         -3.1416452450161289E-031
   2.6811111111111114          2.5437481460833750E-031
   2.6911111111111112          1.0035499020710121E-030
   2.7011111111111110          1.6372695330682387E-030
   2.7111111111111112          1.7672429090036303E-030
   2.7211111111111110          1.0694043869882589E-030
   2.7311111111111113         -5.1987516602969360E-031
   2.7411111111111111         -2.6515157754548972E-030
   2.7511111111111113         -4.5505312250275137E-030
   2.7611111111111111         -5.2036731260054107E-030
   2.7711111111111113         -3.7339030743700220E-030
   2.7811111111111111          1.4498988133423652E-031
   2.7911111111111113          5.7690001446830950E-030
   2.8011111111111111          1.1442273295649914E-029
   2.8111111111111113          1.4747725794342961E-029
   2.8211111111111111          1.3241401818058018E-029
   2.8311111111111114          5.3892676972770787E-030
   2.8411111111111111         -8.4930930102278176E-030
   2.8511111111111114         -2.5582894814007871E-029
   2.8611111111111112         -4.0465804339486356E-029
   2.8711111111111114         -4.5900381419496105E-029
   2.8811111111111112         -3.4646910948339671E-029
   2.8911111111111114         -2.3833324757272243E-030
   2.9011111111111112          4.8709410428695651E-029
   2.9111111111111114          1.0682312473877202E-028
   2.9211111111111112          1.4976268377679549E-028
   2.9311111111111114          1.4877418819577659E-028
   2.9411111111111112          7.8374172324351977E-029
   2.9511111111111110         -6.8797581972383666E-029
   2.9611111111111112         -2.6675184176407769E-028
   2.9711111111111110         -4.4874326593443007E-028
   2.9811111111111113         -5.1693630451580166E-028
   2.9911111111111111         -3.7460803532501902E-028
   3.0011111111111113          2.3117692448130056E-029
   3.0111111111111111          6.1696992434750106E-028
   3.0211111111111113          1.2174157549581485E-027
   3.0311111111111111          1.5334561403037302E-027
   3.0411111111111113          1.2701574427816902E-027
   3.0511111111111111          2.7801195970280779E-028
   3.0611111111111113         -1.2999798901915432E-027
   3.0711111111111111         -2.9633477089639700E-027
   3.0811111111111114         -3.9451064833339019E-027
   3.0911111111111111         -3.4825986442351848E-027
   3.1011111111111114         -1.2058130863046848E-027
   3.1111111111111112          2.5107524386960196E-027
   3.1211111111111109          6.4346039739776751E-027
   3.1311111111111116          8.7603719970732673E-027
   3.1411111111111114          7.8063548954012725E-027
   3.1511111111111112          2.9183699262287394E-027
   3.1611111111111110         -4.8188169285568155E-027
   3.1711111111111117         -1.2518924431902066E-026
   3.1811111111111114         -1.6365381701996543E-026
   3.1911111111111112         -1.3302635400451787E-026
   3.2011111111111110         -2.9369790317233866E-027
   3.2111111111111108          1.1321551444689167E-026
   3.2211111111111115          2.2806230696411888E-026
   3.2311111111111113          2.4184164238142957E-026
   3.2411111111111111          1.1434816155090558E-026
   3.2511111111111108         -1.2494535225458324E-026
   3.2611111111111115         -3.6593590308242876E-026
   3.2711111111111113         -4.4971585863041568E-026
   3.2811111111111111         -2.4324160856172443E-026
   3.2911111111111109          2.6751807877024198E-026
   3.3011111111111116          9.1149401679924284E-026
   3.3111111111111113          1.3437803018775914E-025
   3.3211111111111111          1.1632798055588073E-025
   3.3311111111111109          1.1919451003320340E-026
   3.3411111111111116         -1.6682387921949935E-025
   3.3511111111111114         -3.5883263587624527E-025
   3.3611111111111112         -4.6333799502343362E-025
   3.3711111111111109         -3.7511472496000695E-025
   3.3811111111111116         -3.8472487502644220E-026
   3.3911111111111114          5.0006159022515450E-025
   3.4011111111111112          1.0682125261931028E-024
   3.4111111111111110          1.3980301430701239E-024
   3.4211111111111117          1.2167947735143198E-024
   3.4311111111111114          3.7835405900778060E-025
   3.4411111111111112         -1.0135805558477006E-024
   3.4511111111111110         -2.5532719736946981E-024
   3.4611111111111117         -3.6040226693202812E-024
   3.4711111111111115         -3.5041611617588059E-024
   3.4811111111111113         -1.8593033439779481E-024
   3.4911111111111111          1.1855107193807439E-024
   3.5011111111111108          4.8264967483141266E-024
   3.5111111111111115          7.7390923005390536E-024
   3.5211111111111113          8.4909848171586931E-024
   3.5311111111111111          6.1259660182402584E-024
   3.5411111111111109          7.0472874176777117E-025
   3.5511111111111116         -6.4523741782849142E-024
   3.5611111111111113         -1.3008132522503568E-023
   3.5711111111111111         -1.6349453071902127E-023
   3.5811111111111109         -1.4610921965930800E-023
   3.5911111111111116         -7.5799837891214068E-024
   3.6011111111111114          2.9567041180946810E-024
   3.6111111111111112          1.3699735555580787E-023
   3.6211111111111109          2.1084092095399150E-023
   3.6311111111111116          2.2814895519942932E-023
   3.6411111111111114          1.8957747502090312E-023
   3.6511111111111112          1.1905262378515712E-023
   3.6611111111111110          4.9836741282357923E-024
   3.6711111111111117          1.7868758302502144E-025
   3.6811111111111114         -3.8522487972007457E-024
   3.6911111111111112         -1.2046047228826885E-023
   3.7011111111111110         -3.0506074775681577E-023
   3.7111111111111117         -6.1634491385822873E-023
   3.7211111111111115         -9.8701986160439876E-023
   3.7311111111111113         -1.2302134355627877E-022
   3.7411111111111111         -1.0699382304207552E-022
   3.7511111111111108         -2.4631937218645475E-023
   3.7611111111111115          1.3217390972704468E-022
   3.7711111111111113          3.3738477773212814E-022
   3.7811111111111111          5.2319279766884662E-022
   3.7911111111111109          5.8956944750031509E-022
   3.8011111111111116          4.3504550536299973E-022
   3.8111111111111113          4.3139087371673545E-024
   3.8211111111111111         -6.6188014887457119E-022
   3.8311111111111109         -1.3967988716143150E-021
   3.8411111111111116         -1.9206380555980125E-021
   3.8511111111111114         -1.9097427379154323E-021
   3.8611111111111112         -1.1161001996490777E-021
   3.8711111111111109          4.9351294740630094E-022
   3.8811111111111116          2.6302853100055264E-021
   3.8911111111111114          4.6663932150822883E-021
   3.9011111111111112          5.7512070650125559E-021
   3.9111111111111110          5.0643931055167383E-021
   3.9211111111111117          2.1546839227688117E-021
   3.9311111111111114         -2.7403227477465619E-021
   3.9411111111111112         -8.5274558258038799E-021
   3.9511111111111110         -1.3364169083302531E-020
   3.9611111111111117         -1.5090869837915763E-020
   3.9711111111111115         -1.1933493974819580E-020
   3.9811111111111113         -3.2984881096156843E-021
   3.9911111111111111          9.6091762302695265E-021
   4.0011111111111113          2.3631057298128284E-020
   4.0111111111111111          3.4163599736554270E-020
   4.0211111111111109          3.6345007490001583E-020
   4.0311111111111106          2.6693262154341120E-020
   4.0411111111111104          4.7419837097996403E-021
   4.0511111111111120         -2.5901992812600257E-020
   4.0611111111111118         -5.7604967718117952E-020
   4.0711111111111116         -8.0134446622524348E-020
   4.0811111111111114         -8.3342621391871517E-020
   4.0911111111111111         -6.0523933003452733E-020
   4.1011111111111109         -1.1504492582872865E-020
   4.1111111111111107          5.5603643000137115E-020
   4.1211111111111105          1.2485042820750881E-019
   4.1311111111111121          1.7544596435008043E-019
   4.1411111111111119          1.8692931212854491E-019
   4.1511111111111116          1.4539022754599546E-019
   4.1611111111111114          4.9104921135834128E-020
   4.1711111111111112         -8.8166732261932239E-020
   4.1811111111111110         -2.3759574023455175E-019
   4.1911111111111108         -3.5996610001986758E-019
   4.2011111111111106         -4.1411073212878040E-019
   4.2111111111111121         -3.6753371695017381E-019
   4.2211111111111119         -2.0688765519519508E-019
   4.2311111111111117          5.4303360313643504E-020
   4.2411111111111115          3.7299515109516103E-019
   4.2511111111111113          6.8056900113380938E-019
   4.2611111111111111          8.9372036519528862E-019
   4.2711111111111109          9.3128201642586219E-019
   4.2811111111111106          7.3460064554092629E-019
   4.2911111111111104          2.8785756069874652E-019
   4.3011111111111120         -3.6618766144900275E-019
   4.3111111111111118         -1.1199165226130940E-018
   4.3211111111111116         -1.8084225802182911E-018
   4.3311111111111114         -2.2336296042223465E-018
   4.3411111111111111         -2.2045587551844766E-018
   4.3511111111111109         -1.5889967927166557E-018
   4.3611111111111107         -3.6688058030838077E-019
   4.3711111111111105          1.3284962145253575E-018
   4.3811111111111121          3.1971403350720763E-018
   4.3911111111111119          4.8002490358340398E-018
   4.4011111111111116          5.6353317047787865E-018
   4.4111111111111114          5.2526043343372387E-018
   4.4211111111111112          3.3923857721124084E-018
   4.4311111111111110          1.1053036791587029E-019
   4.4411111111111108         -4.1474802826184305E-018
   4.4511111111111106         -8.5591620528862981E-018
   4.4611111111111121         -1.2043652938640414E-017
   4.4711111111111119         -1.3479387019126254E-017
   4.4811111111111117         -1.1983387867932251E-017
   4.4911111111111115         -7.1888314890738010E-018
   4.5011111111111113          5.5430380973549933E-019
   4.5111111111111111          1.0122078461274616E-017
   4.5211111111111109          1.9739417930214275E-017
   4.5311111111111106          2.7274361639914965E-017
   4.5411111111111104          3.0647888728036930E-017
   4.5511111111111120          2.8269737849502075E-017