 -0.88888888888888884          0.0000000000000000     
 -0.87888888888888883          0.0000000000000000     
 -0.86888888888888882          0.0000000000000000     
 -0.85888888888888881          0.0000000000000000     
 -0.84888888888888880          0.0000000000000000     
 -0.83888888888888880          0.0000000000000000     
 -0.82888888888888879          0.0000000000000000     
 -0.81888888888888878          0.0000000000000000     
 -0.80888888888888888          0.0000000000000000     
 -0.79888888888888887          0.0000000000000000     
 -0.78888888888888886          0.0000000000000000     
 -0.77888888888888885          0.0000000000000000     
 -0.76888888888888884          0.0000000000000000     
 -0.75888888888888884          0.0000000000000000     
 -0.74888888888888883          0.0000000000000000     
 -0.73888888888888882          0.0000000000000000     
 -0.72888888888888881          0.0000000000000000     
 -0.71888888888888880          0.0000000000000000     
 -0.70888888888888890          0.0000000000000000     
 -0.69888888888888889          0.0000000000000000     
 -0.68888888888888888          0.0000000000000000     
 -0.67888888888888888          0.0000000000000000     
 -0.66888888888888887          0.0000000000000000     
 -0.65888888888888886          0.0000000000000000     
 -0.64888888888888885          0.0000000000000000     
 -0.63888888888888884          0.0000000000000000     
 -0.62888888888888883          0.0000000000000000     
 -0.61888888888888882          0.0000000000000000     
 -0.60888888888888881          0.0000000000000000     
 -0.59888888888888880          0.0000000000000000     
 -0.58888888888888880          0.0000000000000000     
 -0.57888888888888879          0.0000000000000000     
 -0.56888888888888878          0.0000000000000000     
 -0.55888888888888877          0.0000000000000000     
 -0.54888888888888876          0.0000000000000000     
 -0.53888888888888875          0.0000000000000000     
 -0.52888888888888885          0.0000000000000000     
 -0.51888888888888884          0.0000000000000000     
 -0.50888888888888884          0.0000000000000000     
 -0.49888888888888883          0.0000000000000000     
 -0.48888888888888882          0.0000000000000000     
 -0.47888888888888881          0.0000000000000000     
 -0.46888888888888886          0.0000000000000000     
 -0.45888888888888885          0.0000000000000000     
 -0.44888888888888884          0.0000000000000000     
 -0.43888888888888883          0.0000000000000000     
 -0.42888888888888882          0.0000000000000000     
 -0.41888888888888881          0.0000000000000000     
 -0.40888888888888886          0.0000000000000000     
 -0.39888888888888885          0.0000000000000000     
 -0.38888888888888884          0.0000000000000000     
 -0.37888888888888883          0.0000000000000000     
 -0.36888888888888882          0.0000000000000000     
 -0.35888888888888881          0.0000000000000000     
 -0.34888888888888880          0.0000000000000000     
 -0.33888888888888880          0.0000000000000000     
 -0.32888888888888879          0.0000000000000000     
 -0.31888888888888878          0.0000000000000000     
 -0.30888888888888888          0.0000000000000000     
 -0.29888888888888887          0.0000000000000000     
 -0.28888888888888886          0.0000000000000000     
 -0.27888888888888885          0.0000000000000000     
 -0.26888888888888884          0.0000000000000000     
 -0.25888888888888884          0.0000000000000000     
 -0.24888888888888883          0.0000000000000000     
 -0.23888888888888882          0.0000000000000000     
 -0.22888888888888881          0.0000000000000000     
 -0.21888888888888880          0.0000000000000000     
 -0.20888888888888879          0.0000000000000000     
 -0.19888888888888878          0.0000000000000000     
 -0.18888888888888877          0.0000000000000000     
 -0.17888888888888888          0.0000000000000000     
 -0.16888888888888887          0.0000000000000000     
 -0.15888888888888886          0.0000000000000000     
 -0.14888888888888885          0.0000000000000000     
 -0.13888888888888884          0.0000000000000000     
 -0.12888888888888883          0.0000000000000000     
 -0.11888888888888882          0.0000000000000000     
 -0.10888888888888881          0.0000000000000000     
  -9.8888888888888804E-002     0.0000000000000000     
  -8.8888888888888795E-002     0.0000000000000000     
  -7.8888888888888786E-002     0.0000000000000000     
  -6.8888888888888777E-002     0.0000000000000000     
  -5.8888888888888768E-002     0.0000000000000000     
  -4.8888888888888871E-002     0.0000000000000000     
  -3.8888888888888862E-002     0.0000000000000000     
  -2.8888888888888853E-002     0.0000000000000000     
  -1.8888888888888844E-002     0.0000000000000000     
  -8.8888888888888351E-003     0.0000000000000000     
   1.1111111111111738E-003     0.0000000000000000     
   1.1111111111111183E-002     0.0000000000000000     
   2.1111111111111192E-002     0.0000000000000000     
   3.1111111111111200E-002     0.0000000000000000     
   4.1111111111111209E-002     0.0000000000000000     
   5.1111111111111218E-002     0.0000000000000000     
   6.1111111111111227E-002     0.0000000000000000     
   7.1111111111111125E-002     0.0000000000000000     
   8.1111111111111134E-002     0.0000000000000000     
   9.1111111111111143E-002     0.0000000000000000     
  0.10111111111111115          0.0000000000000000     
  0.11111111111111116          0.0000000000000000     
  0.12111111111111117          0.0000000000000000     
  0.13111111111111118          0.0000000000000000     
  0.14111111111111119          0.0000000000000000     
  0.15111111111111120          0.0000000000000000     
  0.16111111111111120          0.0000000000000000     
  0.17111111111111121          0.0000000000000000     
  0.18111111111111122          0.0000000000000000     
  0.19111111111111123          0.0000000000000000     
  0.20111111111111124          0.0000000000000000     
  0.21111111111111125          0.0000000000000000     
  0.22111111111111126          0.0000000000000000     
  0.23111111111111127          0.0000000000000000     
  0.24111111111111128          0.0000000000000000     
  0.25111111111111128          0.0000000000000000     
  0.26111111111111129          0.0000000000000000     
  0.27111111111111108          0.0000000000000000     
  0.28111111111111109          0.0000000000000000     
  0.29111111111111110          0.0000000000000000     
  0.30111111111111111          0.0000000000000000     
  0.31111111111111112          0.0000000000000000     
  0.32111111111111112          0.0000000000000000     
  0.33111111111111113          0.0000000000000000     
  0.34111111111111114          0.0000000000000000     
  0.35111111111111115          0.0000000000000000     
  0.36111111111111116          0.0000000000000000     
  0.37111111111111117          0.0000000000000000     
  0.38111111111111118          0.0000000000000000     
  0.39111111111111119          0.0000000000000000     
  0.40111111111111120          0.0000000000000000     
  0.41111111111111120          0.0000000000000000     
  0.42111111111111121          0.0000000000000000     
  0.43111111111111122          0.0000000000000000     
  0.44111111111111123          0.0000000000000000     
  0.45111111111111124          0.0000000000000000     
  0.46111111111111125          0.0000000000000000     
  0.47111111111111126          0.0000000000000000     
  0.48111111111111127          0.0000000000000000     
  0.49111111111111128          0.0000000000000000     
  0.50111111111111128          1.4128164370523349E-038
  0.51111111111111129          7.3476591719812341E-038
  0.52111111111111108          1.0753996015155658E-037
  0.53111111111111109         -1.2132370357642893E-037
  0.54111111111111110         -3.8005241190587838E-037
  0.55111111111111111          8.3822696656933560E-037
  0.56111111111111112          4.7507259087907343E-036
  0.57111111111111112          6.8092913778507014E-036
  0.58111111111111113          0.0000000000000000     
  0.59111111111111114         -1.9225976360119580E-035
  0.60111111111111115         -4.2302339567655258E-035
  0.61111111111111116         -4.3982286298873392E-035
  0.62111111111111117          7.5418308447863792E-036
  0.63111111111111118          1.2035715614457808E-034
  0.64111111111111119          2.3873500479933701E-034
  0.65111111111111120          2.3248018099151238E-034
  0.66111111111111120         -4.1069557086385914E-035
  0.67111111111111121         -5.9014399002537117E-034
  0.68111111111111122         -1.1290354161644329E-033
  0.69111111111111123         -1.0680902585071205E-033
  0.70111111111111124          1.7430300258558700E-034
  0.71111111111111125          2.5414579083991489E-033
  0.72111111111111126          4.7460514619472778E-033
  0.73111111111111127          4.3803592101682951E-033
  0.74111111111111128         -7.0950221703992771E-034
  0.75111111111111128         -1.0002734731155880E-032
  0.76111111111111129         -1.8317415493492800E-032
  0.77111111111111130         -1.6635650419450738E-032
  0.78111111111111109          2.5688092742198834E-033
  0.79111111111111110          3.6734689232087953E-032
  0.80111111111111111          6.6768073249234176E-032
  0.81111111111111112          6.0687793454775370E-032
  0.82111111111111112         -7.4968401186439135E-033
  0.83111111111111113         -1.2834336493888037E-031
  0.84111111111111114         -2.3524836953599508E-031
  0.85111111111111115         -2.1705070606012436E-031
  0.86111111111111116          1.7196095269196096E-032
  0.87111111111111117          4.3610892137258303E-031
  0.88111111111111118          8.0925347525862491E-031
  0.89111111111111119          7.5089488271770163E-031
  0.90111111111111120         -4.9850511366465421E-032
  0.91111111111111120         -1.4680824179058001E-030
  0.92111111111111121         -2.6882135806129922E-030
  0.93111111111111122         -2.4028957109904453E-030
  0.94111111111111123          3.3222221011018769E-031
  0.95111111111111124          4.8796083294724153E-030
  0.96111111111111125          8.3627812799984853E-030
  0.97111111111111126          6.7079869129108995E-030
  0.98111111111111127         -2.2999746918471374E-030
  0.99111111111111128         -1.5476475115807555E-029
   1.0011111111111113         -2.3437067304321915E-029
   1.0111111111111113         -1.5348900312585129E-029
   1.0211111111111113          1.1651169738457707E-029
   1.0311111111111111          4.4635078547954611E-029
   1.0411111111111111          5.7394523920593568E-029
   1.0511111111111111          2.7059433079996650E-029
   1.0611111111111111         -4.3160728018012034E-029
   1.0711111111111111         -1.1334330038018425E-028
   1.0811111111111111         -1.2399139389377455E-028
   1.0911111111111111         -3.7721134492350263E-029
   1.1011111111111112          1.2102487196337274E-028
   1.1111111111111112          2.6135398976069497E-028
   1.1211111111111114          2.6869110877332980E-028
   1.1311111111111112          7.3963311269219110E-029
   1.1411111111111114         -2.8745809237516817E-028
   1.1511111111111112         -6.5082055053253721E-028
   1.1611111111111110         -7.4168871790714636E-028
   1.1711111111111112         -2.7125218633925164E-028
   1.1811111111111110          8.3925469184935100E-028
   1.1911111111111112          2.1349104841297560E-027
   1.2011111111111110          2.4773959098382160E-027
   1.2111111111111112          5.4895195279807427E-028
   1.2211111111111110         -3.7771646218113572E-027
   1.2311111111111113         -7.9646647960859478E-027
   1.2411111111111111         -7.0952784487741724E-027
   1.2511111111111113          2.5246778751589115E-027
   1.2611111111111111          1.7644028162490606E-026
   1.2711111111111113          2.5494979891684109E-026
   1.2811111111111111          1.0694453247357128E-026
   1.2911111111111113         -2.8315699969721566E-026
   1.3011111111111111         -6.5399977168451466E-026
   1.3111111111111113         -5.5109471549118028E-026
   1.3211111111111111          2.7949073782532190E-026
   1.3311111111111114          1.4151813350043096E-025
   1.3411111111111111          1.7214000053383211E-025
   1.3511111111111114          1.6495172432064732E-026
   1.3611111111111112         -2.8333539319536040E-025
   1.3711111111111114         -4.7349556525428568E-025
   1.3811111111111112         -2.2803308829574659E-025
   1.3911111111111114          5.1046291847571985E-025
   1.4011111111111112          1.2426007803068148E-024
   1.4111111111111114          1.0656606597723260E-024
   1.4211111111111112         -5.6729314834113361E-025
   1.4311111111111110         -2.9112505443815252E-024
   1.4411111111111112         -3.7800901124783693E-024
   1.4511111111111110         -9.5916926934053388E-025
   1.4611111111111112          5.2691222634986576E-024
   1.4711111111111110          1.0535827457183718E-023
   1.4811111111111113          8.2105045334464571E-024
   1.4911111111111111         -4.9213063906385665E-024
   1.5011111111111113         -2.2636676064235401E-023
   1.5111111111111111         -2.9228268415073720E-023
   1.5211111111111113         -9.6153206552385185E-024
   1.5311111111111111          3.4234051553469689E-023
   1.5411111111111113          7.3621744022522731E-023
   1.5511111111111111          6.4705388050328953E-023
   1.5611111111111113         -1.6722393375732602E-023
   1.5711111111111111         -1.3771570176243298E-022
   1.5811111111111114         -2.0379844095327782E-022
   1.5911111111111111         -1.1261915860277035E-022
   1.6011111111111114          1.5129280573485354E-022
   1.6111111111111112          4.4712323087919757E-022
   1.6211111111111114          5.1438577781811648E-022
   1.6311111111111112          1.4274645077075739E-022
   1.6411111111111114         -6.0506307957563923E-022
   1.6511111111111112         -1.2886089587350817E-021
   1.6611111111111114         -1.2604778506887638E-021
   1.6711111111111112         -1.1095092604750689E-022
   1.6811111111111110          1.8493050368752511E-021
   1.6911111111111112          3.4524527556820852E-021
   1.7011111111111110          3.1677810520320183E-021
   1.7111111111111112          1.4027119457679110E-022
   1.7211111111111110         -4.7800021101311852E-021
   1.7311111111111113         -8.8129244178077394E-021
   1.7411111111111111         -8.3716227532171322E-021
   1.7511111111111113         -1.3273002511078929E-021
   1.7611111111111111          1.0696722441939990E-020
   1.7711111111111113          2.1610203362872953E-020
   1.7811111111111111          2.2934091392979868E-020
   1.7911111111111113          8.5286319732373538E-021
   1.8011111111111111         -1.9987911542374666E-020
   1.8111111111111113         -5.0409197553722721E-020
   1.8211111111111111         -6.2788546725469784E-020
   1.8311111111111114         -3.8833787158020505E-020
   1.8411111111111111          2.5065133217528079E-020
   1.8511111111111114          1.0782184254824783E-019
   1.8611111111111112          1.6462702354925503E-019
   1.8711111111111114          1.4379760759879825E-019
   1.8811111111111112          1.6663471044936914E-020
   1.8911111111111114         -1.9207434968923060E-019
   1.9011111111111112         -3.9255988543720667E-019
   1.9111111111111114         -4.5313863854328664E-019
   1.9211111111111112         -2.6132876693022280E-019
   1.9311111111111110          1.9726375773496152E-019
   1.9411111111111112          7.8174854458916518E-019
   1.9511111111111110          1.2048122402285191E-018
   1.9611111111111112          1.1322060483713709E-018
   1.9711111111111110          3.5512295753336961E-019
   1.9811111111111113         -1.0313824510733543E-018
   1.9911111111111111         -2.5415802608794069E-018
   2.0011111111111113         -3.3904034337744251E-018
   2.0111111111111111         -2.7875459315396530E-018
   2.0211111111111113         -3.6086312569539306E-019
   2.0311111111111111          3.4606552628130943E-018
   2.0411111111111113          7.3192092156825716E-018
   2.0511111111111111          9.2241772150707550E-018
   2.0611111111111113          7.2924251074481045E-018
   2.0711111111111111          7.4075378362376684E-019
   2.0811111111111114         -9.2594821107951307E-018
   2.0911111111111111         -1.9336878756921470E-017
   2.1011111111111114         -2.4638532420041266E-017
   2.1111111111111112         -2.0538901227136578E-017
   2.1211111111111114         -4.9070909924738391E-018
   2.1311111111111112          1.9914732243599989E-017
   2.1411111111111114          4.6433538840202893E-017
   2.1511111111111112          6.3397570600677198E-017
   2.1611111111111114          5.9362656364537434E-017
   2.1711111111111112          2.7618480355265600E-017
   2.1811111111111114         -2.9186144780369972E-017
   2.1911111111111112         -9.6775228142033024E-017
   2.2011111111111110         -1.5104737531224972E-016
   2.2111111111111112         -1.6451886523806793E-016
   2.2211111111111110         -1.1628227118584645E-016
   2.2311111111111113         -2.6210698362039152E-018
   2.2411111111111111          1.5568625712700630E-016
   2.2511111111111113          3.1322471061186175E-016
   2.2611111111111111          4.0919510525277048E-016
   2.2711111111111113          3.8537659171553875E-016
   2.2811111111111111          2.0866470043663497E-016
   2.2911111111111113         -1.0878541418027015E-016
   2.3011111111111111         -4.9980110788981971E-016
   2.3111111111111113         -8.4920844550020460E-016
   2.3211111111111111         -1.0197550354189506E-015
   2.3311111111111114         -8.9306770562991387E-016
   2.3411111111111111         -4.1569573901581241E-016
   2.3511111111111114          3.6384580828972249E-016
   2.3611111111111112          1.2815793780414776E-015
   2.3711111111111114          2.0785574426733771E-015
   2.3811111111111112          2.4574668319575109E-015
   2.3911111111111114          2.1666192230346704E-015
   2.4011111111111112          1.0920099104350578E-015
   2.4111111111111114         -6.6895056990162890E-016
   2.4211111111111112         -2.7790776187334434E-015
   2.4311111111111114         -4.6981355810652835E-015
   2.4411111111111112         -5.7895616740414463E-015
   2.4511111111111110         -5.4827134009867353E-015
   2.4611111111111112         -3.4569269579602484E-015
   2.4711111111111110          1.9990726649964216E-016
   2.4811111111111113          4.9087092423021235E-015
   2.4911111111111111          9.6330219530858276E-015
   2.5011111111111113          1.3047045845234698E-014
   2.5111111111111111          1.3823786069295206E-014
   2.5211111111111113          1.0994573205688491E-014
   2.5311111111111111          4.3020710217421716E-015
   2.5411111111111113         -5.5464145137849950E-015
   2.5511111111111111         -1.6813604002997862E-014
   2.5611111111111113         -2.6915322320084437E-014
   2.5711111111111111         -3.2864244772822307E-014
   2.5811111111111114         -3.1925844075613580E-014
   2.5911111111111111         -2.2376509824749424E-014
   2.6011111111111114         -4.2050048576350915E-015
   2.6111111111111112          2.0424937443946044E-014
   2.6211111111111114          4.7121286500572193E-014
   2.6311111111111112          6.9737747206751605E-014
   2.6411111111111114          8.1401621283404973E-014
   2.6511111111111112          7.6000234480299439E-014
   2.6611111111111114          4.9896915212902654E-014
   2.6711111111111112          3.5285654047489913E-015
   2.6811111111111114         -5.7534367352805871E-014
   2.6911111111111112         -1.2247689841482501E-013
   2.7011111111111110         -1.7637947309287472E-013
   2.7111111111111112         -2.0269495717289976E-013
   2.7211111111111110         -1.8684599494781656E-013
   2.7311111111111113         -1.2038495742806854E-013
   2.7411111111111111         -4.8511440361737740E-015
   2.7511111111111113          1.4572322298497808E-013
   2.7611111111111111          3.0467804928296927E-013
   2.7711111111111113          4.3568162857825221E-013
   2.7811111111111111          4.9892083736971515E-013
   2.7911111111111113          4.5988706549524028E-013
   2.8011111111111111          2.9928297795751846E-013
   2.8111111111111113          2.1891414055856886E-014
   2.8211111111111111         -3.3806421204096715E-013
   2.8311111111111114         -7.1730669364347688E-013
   2.8411111111111111         -1.0310292116594288E-012
   2.8511111111111114         -1.1875470225242157E-012
   2.8611111111111112         -1.1083340191800350E-012
   2.8711111111111114         -7.4997397615100825E-013
   2.8811111111111112         -1.2326298564745847E-013
   2.8911111111111114          6.9575958492815171E-013
   2.9011111111111112          1.5673884716169151E-012
   2.9111111111111114          2.3050506815780469E-012
   2.9211111111111112          2.7069622585140785E-012
   2.9311111111111114          2.5987345955713614E-012
   2.9411111111111112          1.8796058459669140E-012
   2.9511111111111110          5.6253634563019350E-013
   2.9611111111111112         -1.2023175424008548E-012
   2.9711111111111110         -3.1297059128326810E-012
   2.9811111111111113         -4.8320635687160163E-012
   2.9911111111111111         -5.8822677631575893E-012
   3.0011111111111113         -5.8988794751635432E-012
   3.0111111111111111         -4.6398700853655939E-012
   3.0211111111111113         -2.0861060275045862E-012
   3.0311111111111111          1.5056998616674866E-012
   3.0411111111111113          5.5983906746548406E-012
   3.0511111111111111          9.4291597099727120E-012
   3.0611111111111113          1.2124290287018891E-011
   3.0711111111111111          1.2861729910274011E-011
   3.0811111111111114          1.1056724980029742E-011
   3.0911111111111111          6.5358092202205675E-012
   3.1011111111111114         -3.4010310843643476E-013
   3.1111111111111112         -8.6398579263180508E-012
   3.1211111111111109         -1.6938615440831306E-011
   3.1311111111111116         -2.3513383948237099E-011
   3.1411111111111114         -2.6640606387573484E-011
   3.1511111111111112         -2.4954358024409373E-011
   3.1611111111111110         -1.7802955290524558E-011
   3.1711111111111117         -5.5294891929125178E-012
   3.1811111111111114          1.0397582100862834E-011
   3.1911111111111112          2.7461654478200259E-011
   3.2011111111111110          4.2408999922916024E-011
   3.2111111111111108          5.1775188303349040E-011
   3.2211111111111115          5.2558520036161127E-011
   3.2311111111111113          4.2927175702978104E-011
   3.2411111111111111          2.2818021777615272E-011
   3.2511111111111108         -5.7177166647159883E-012
   3.2611111111111115         -3.8539189201047819E-011
   3.2711111111111113         -6.9871934627041554E-011
   3.2811111111111111         -9.3178506577196174E-011
   3.2911111111111109         -1.0234041392109816E-010
   3.3011111111111116         -9.2967314402336854E-011
   3.3111111111111113         -6.3590313570394130E-011
   3.3211111111111111         -1.6475347128230844E-011
   3.3311111111111109          4.2177449033342640E-011
   3.3411111111111116          1.0279736090135216E-010
   3.3511111111111114          1.5378530393572731E-010
   3.3611111111111112          1.8349018138241746E-010
   3.3711111111111109          1.8252109545979778E-010
   3.3811111111111116          1.4598205977378598E-010
   3.3911111111111114          7.5170480950959018E-011
   3.4011111111111112         -2.1681670347994952E-011
   3.4111111111111110         -1.2992058817662411E-010
   3.4211111111111117         -2.3033434881636339E-010
   3.4311111111111114         -3.0221339319957963E-010
   3.4411111111111112         -3.2718913689500084E-010
   3.4511111111111110         -2.9320512684449795E-010
   3.4611111111111117         -1.9784394955646434E-010
   3.4711111111111115         -5.0246706101431116E-011
   3.4811111111111113          1.2896048118271608E-010
   3.4911111111111111          3.0999433575651381E-010
   3.5011111111111108          4.5834641637654272E-010
   3.5111111111111115          5.4074494881817259E-010
   3.5211111111111113          5.3171550495889619E-010
   3.5311111111111111          4.1958428398380931E-010
   3.5411111111111109          2.1072277256450889E-010
   3.5511111111111116         -6.9006605984966995E-011
   3.5611111111111113         -3.7627009841223469E-010
   3.5711111111111111         -6.5586813757789741E-010
   3.5811111111111109         -8.4940821043488768E-010
   3.5911111111111116         -9.0591018020447223E-010
   3.6011111111111114         -7.9273021480474881E-010
   3.6111111111111112         -5.0492349190633945E-010
   3.6211111111111109         -7.1144465318973005E-011
   3.6311111111111116          4.4558956524554105E-010
   3.6411111111111114          9.5346430750709033E-010
   3.6511111111111112          1.3441846524742118E-009
   3.6611111111111110          1.5113816864698038E-009
   3.6711111111111117          1.3731020764851110E-009
   3.6811111111111114          8.9493801258555550E-010
   3.6911111111111112          1.0914559533947710E-010
   3.7011111111111110         -8.7551693672693887E-010
   3.7111111111111117         -1.8781527444389212E-009
   3.7211111111111115         -2.6676576503348315E-009
   3.7311111111111113         -3.0027333952631352E-009
   3.7411111111111111         -2.6865243363261015E-009
   3.7511111111111108         -1.6277350578519645E-009
   3.7611111111111115          1.0445388998192584E-010
   3.7711111111111113          2.2475989958081755E-009
   3.7811111111111111          4.3518895154193160E-009
   3.7911111111111109          5.8381699474807647E-009
   3.8011111111111116          6.1139462381731846E-009
   3.8111111111111113          4.7415351644986004E-009
   3.8211111111111111          1.6383430168076529E-009
   3.8311111111111109         -2.7249427159148354E-009
   3.8411111111111116         -7.1733907702764554E-009
   3.8511111111111114         -9.7718899638721268E-009
   3.8611111111111112         -7.9032380639887378E-009
   3.8711111111111109          1.5045081847020469E-009
   3.8811111111111116          2.1624966706212945E-008
   3.8911111111111114          5.5328957415667901E-008
   3.9011111111111112          1.0485729973197522E-007
   3.9111111111111110          1.7174752997561882E-007
   3.9211111111111117          2.5721669771883171E-007
   3.9311111111111114          3.6319511309557129E-007
   3.9411111111111112          4.9415416469855700E-007
   3.9511111111111110          6.5977422991636558E-007
   3.9611111111111117          8.7836718876133091E-007
   3.9711111111111115          1.1808250519607100E-006
   3.9811111111111113          1.6147261021615122E-006
   3.9911111111111111          2.2481565338239307E-006
   4.0011111111111113          3.1728284284326946E-006
   4.0111111111111111          4.5061997298034839E-006
   4.0211111111111109          6.3925958784238901E-006
   4.0311111111111106          9.0037874542758800E-006
   4.0411111111111104          1.2539974704850465E-005
   4.0511111111111120          1.7232676327694207E-005
   4.0611111111111118          2.3351407435256988E-005
   4.0711111111111116          3.1216241040965542E-005
   4.0811111111111114          4.1218256228603423E-005
   4.0911111111111111          5.3849293180974200E-005
   4.1011111111111109          6.9741276092827320E-005
   4.1111111111111107          8.9714063506107777E-005
   4.1211111111111105          1.1482875561341643E-004
   4.1311111111111121          1.4644151087850332E-004
   4.1411111111111119          1.8625140364747494E-004
   4.1511111111111116          2.3633470118511468E-004
   4.1611111111111114          2.9915734194219112E-004
   4.1711111111111112          3.7755924859084189E-004
   4.1811111111111110          4.7470582649111748E-004
   4.1911111111111108          5.9400533791631460E-004
   4.2011111111111106          7.3899538256227970E-004
   4.2111111111111121          9.1320951469242573E-004
   4.2211111111111119          1.1200361186638474E-003
   4.2311111111111117          1.3625887222588062E-003
   4.2411111111111115          1.6436101868748665E-003
   4.2511111111111113          1.9654314965009689E-003
   4.2611111111111111          2.3300019092857838E-003
   4.2711111111111109          2.7390043251216412E-003
   4.2811111111111106          3.1940543558448553E-003
   4.2911111111111104          3.6969725042581558E-003
   4.3011111111111120          4.2501031421124935E-003
   4.3111111111111118          4.8566362820565701E-003
   4.3211111111111116          5.5208769626915455E-003
   4.3311111111111114          6.2483954243361950E-003
   4.3411111111111111          7.0459917187690735E-003
   4.3511111111111109          7.9213976860046387E-003
   4.3611111111111107          8.8826650753617287E-003
   4.3711111111111105          9.9372072145342827E-003
   4.3811111111111121          1.1090471409261227E-002
   4.3911111111111119          1.2344296090304852E-002
   4.4011111111111116          1.3694998808205128E-002
   4.4111111111111114          1.5131331048905849E-002
   4.4211111111111112          1.6632437705993652E-002
   4.4311111111111110          1.8166014924645424E-002
   4.4411111111111108          1.9686892628669739E-002
   4.4511111111111106          2.1136220544576645E-002
   4.4611111111111121          2.2441500797867775E-002
   4.4711111111111119          2.3517604917287827E-002
   4.4811111111111117          2.4268930777907372E-002
   4.4911111111111115          2.4592725560069084E-002
   4.5011111111111113          2.4383492767810822E-002
   4.5111111111111111          2.3538412526249886E-002
   4.5211111111111109          2.1963486447930336E-002
   4.5311111111111106          1.9580107182264328E-002
   4.5411111111111104          1.6331672668457031E-002
   4.5511111111111120          1.2189763598144054E-002