 -0.88888888888888884          0.0000000000000000     
 -0.87888888888888883          0.0000000000000000     
 -0.86888888888888882          0.0000000000000000     
 -0.85888888888888881          0.0000000000000000     
 -0.84888888888888880          0.0000000000000000     
 -0.83888888888888880          0.0000000000000000     
 -0.82888888888888879          0.0000000000000000     
 -0.81888888888888878          0.0000000000000000     
 -0.80888888888888888          0.0000000000000000     
 -0.79888888888888887          0.0000000000000000     
 -0.78888888888888886          0.0000000000000000     
 -0.77888888888888885          0.0000000000000000     
 -0.76888888888888884          0.0000000000000000     
 -0.75888888888888884          0.0000000000000000     
 -0.74888888888888883          0.0000000000000000     
 -0.73888888888888882          0.0000000000000000     
 -0.72888888888888881          0.0000000000000000     
 -0.71888888888888880          0.0000000000000000     
 -0.70888888888888890          0.0000000000000000     
 -0.69888888888888889          0.0000000000000000     
 -0.68888888888888888          0.0000000000000000     
 -0.67888888888888888          0.0000000000000000     
 -0.66888888888888887          0.0000000000000000     
 -0.65888888888888886          0.0000000000000000     
 -0.64888888888888885          0.0000000000000000     
 -0.63888888888888884          0.0000000000000000     
 -0.62888888888888883          0.0000000000000000     
 -0.61888888888888882          0.0000000000000000     
 -0.60888888888888881          0.0000000000000000     
 -0.59888888888888880          0.0000000000000000     
 -0.58888888888888880          0.0000000000000000     
 -0.57888888888888879          0.0000000000000000     
 -0.56888888888888878          0.0000000000000000     
 -0.55888888888888877          0.0000000000000000     
 -0.54888888888888876          0.0000000000000000     
 -0.53888888888888875          0.0000000000000000     
 -0.52888888888888885          0.0000000000000000     
 -0.51888888888888884          0.0000000000000000     
 -0.50888888888888884          0.0000000000000000     
 -0.49888888888888883          0.0000000000000000     
 -0.48888888888888882          0.0000000000000000     
 -0.47888888888888881          0.0000000000000000     
 -0.46888888888888886          0.0000000000000000     
 -0.45888888888888885          0.0000000000000000     
 -0.44888888888888884          0.0000000000000000     
 -0.43888888888888883          0.0000000000000000     
 -0.42888888888888882          0.0000000000000000     
 -0.41888888888888881          0.0000000000000000     
 -0.40888888888888886          0.0000000000000000     
 -0.39888888888888885          0.0000000000000000     
 -0.38888888888888884          0.0000000000000000     
 -0.37888888888888883          0.0000000000000000     
 -0.36888888888888882          0.0000000000000000     
 -0.35888888888888881          0.0000000000000000     
 -0.34888888888888880          0.0000000000000000     
 -0.33888888888888880          0.0000000000000000     
 -0.32888888888888879          0.0000000000000000     
 -0.31888888888888878          0.0000000000000000     
 -0.30888888888888888          0.0000000000000000     
 -0.29888888888888887          0.0000000000000000     
 -0.28888888888888886          0.0000000000000000     
 -0.27888888888888885          0.0000000000000000     
 -0.26888888888888884          0.0000000000000000     
 -0.25888888888888884          0.0000000000000000     
 -0.24888888888888883          0.0000000000000000     
 -0.23888888888888882          0.0000000000000000     
 -0.22888888888888881          0.0000000000000000     
 -0.21888888888888880          0.0000000000000000     
 -0.20888888888888879          0.0000000000000000     
 -0.19888888888888878          0.0000000000000000     
 -0.18888888888888877          0.0000000000000000     
 -0.17888888888888888          0.0000000000000000     
 -0.16888888888888887          0.0000000000000000     
 -0.15888888888888886          0.0000000000000000     
 -0.14888888888888885          0.0000000000000000     
 -0.13888888888888884          0.0000000000000000     
 -0.12888888888888883          0.0000000000000000     
 -0.11888888888888882          0.0000000000000000     
 -0.10888888888888881          0.0000000000000000     
  -9.8888888888888804E-002     0.0000000000000000     
  -8.8888888888888795E-002     0.0000000000000000     
  -7.8888888888888786E-002     0.0000000000000000     
  -6.8888888888888777E-002     0.0000000000000000     
  -5.8888888888888768E-002     0.0000000000000000     
  -4.8888888888888871E-002     0.0000000000000000     
  -3.8888888888888862E-002     0.0000000000000000     
  -2.8888888888888853E-002     0.0000000000000000     
  -1.8888888888888844E-002     0.0000000000000000     
  -8.8888888888888351E-003     0.0000000000000000     
   1.1111111111111738E-003     0.0000000000000000     
   1.1111111111111183E-002     0.0000000000000000     
   2.1111111111111192E-002     0.0000000000000000     
   3.1111111111111200E-002     0.0000000000000000     
   4.1111111111111209E-002     0.0000000000000000     
   5.1111111111111218E-002     0.0000000000000000     
   6.1111111111111227E-002     0.0000000000000000     
   7.1111111111111125E-002     0.0000000000000000     
   8.1111111111111134E-002     0.0000000000000000     
   9.1111111111111143E-002     0.0000000000000000     
  0.10111111111111115          0.0000000000000000     
  0.11111111111111116          0.0000000000000000     
  0.12111111111111117          0.0000000000000000     
  0.13111111111111118          0.0000000000000000     
  0.14111111111111119          0.0000000000000000     
  0.15111111111111120          0.0000000000000000     
  0.16111111111111120          0.0000000000000000     
  0.17111111111111121          0.0000000000000000     
  0.18111111111111122          0.0000000000000000     
  0.19111111111111123          0.0000000000000000     
  0.20111111111111124          0.0000000000000000     
  0.21111111111111125          0.0000000000000000     
  0.22111111111111126          0.0000000000000000     
  0.23111111111111127          0.0000000000000000     
  0.24111111111111128          0.0000000000000000     
  0.25111111111111128          0.0000000000000000     
  0.26111111111111129          0.0000000000000000     
  0.27111111111111108          0.0000000000000000     
  0.28111111111111109          0.0000000000000000     
  0.29111111111111110          0.0000000000000000     
  0.30111111111111111          0.0000000000000000     
  0.31111111111111112          0.0000000000000000     
  0.32111111111111112          0.0000000000000000     
  0.33111111111111113          0.0000000000000000     
  0.34111111111111114          0.0000000000000000     
  0.35111111111111115          0.0000000000000000     
  0.36111111111111116          0.0000000000000000     
  0.37111111111111117          0.0000000000000000     
  0.38111111111111118          0.0000000000000000     
  0.39111111111111119          0.0000000000000000     
  0.40111111111111120          0.0000000000000000     
  0.41111111111111120          0.0000000000000000     
  0.42111111111111121          0.0000000000000000     
  0.43111111111111122          0.0000000000000000     
  0.44111111111111123          0.0000000000000000     
  0.45111111111111124          0.0000000000000000     
  0.46111111111111125          0.0000000000000000     
  0.47111111111111126          0.0000000000000000     
  0.48111111111111127          0.0000000000000000     
  0.49111111111111128          0.0000000000000000     
  0.50111111111111128         -1.0348405308680255E-037
  0.51111111111111129         -1.0760681890388645E-037
  0.52111111111111108          2.9415454244247515E-037
  0.53111111111111109         -6.2531331916741603E-037
  0.54111111111111110          1.8891418033320188E-037
  0.55111111111111111          1.7317455383753089E-036
  0.56111111111111112          2.6955362910455906E-036
  0.57111111111111112         -5.2822781907647489E-037
  0.58111111111111113         -9.9456464806662112E-036
  0.59111111111111114         -2.1165859158424025E-035
  0.60111111111111115         -2.1193880464189232E-035
  0.61111111111111116          6.1874086615317068E-036
  0.62111111111111117          6.5992505402777655E-035
  0.63111111111111118          1.2718445947657758E-034
  0.64111111111111119          1.2140092395559874E-034
  0.65111111111111120         -2.5663070668943777E-035
  0.66111111111111120         -3.1867330426555661E-034
  0.67111111111111121         -6.0641857155926150E-034
  0.68111111111111122         -5.7310212292108082E-034
  0.69111111111111123          9.5904147281182305E-035
  0.70111111111111124          1.3747620409572701E-033
  0.71111111111111125          2.5751069852044138E-033
  0.72111111111111126          2.3941344871075378E-033
  0.73111111111111127         -3.5770759160665211E-034
  0.74111111111111128         -5.4400082253750616E-033
  0.75111111111111128         -1.0057720683467501E-032
  0.76111111111111129         -9.2427842455049948E-033
  0.77111111111111130          1.2665836835739950E-033
  0.78111111111111109          2.0240322948030484E-032
  0.79111111111111110          3.7207026372135364E-032
  0.80111111111111111          3.4221114968045270E-032
  0.81111111111111112         -3.7355697020155613E-033
  0.82111111111111112         -7.2011859508704335E-032
  0.83111111111111113         -1.3336827415022742E-031
  0.84111111111111114         -1.2425981511355883E-031
  0.85111111111111115          8.7148337330362115E-033
  0.86111111111111116          2.4966315113159758E-031
  0.87111111111111117          4.6714056164107043E-031
  0.88111111111111118          4.3668735863273566E-031
  0.89111111111111119         -2.6880061646347896E-032
  0.90111111111111120         -8.5664348299225140E-031
  0.91111111111111120         -1.5778352221369909E-030
  0.92111111111111121         -1.4173125347751413E-030
  0.93111111111111122          1.9436967186538692E-031
  0.94111111111111123          2.8933023621196009E-030
  0.95111111111111124          4.9753195245446156E-030
  0.96111111111111125          4.0013654669222226E-030
  0.97111111111111126         -1.3779859480904154E-030
  0.98111111111111127         -9.2827378291215058E-030
  0.99111111111111128         -1.4090875349747541E-029
   1.0011111111111113         -9.2649455466274596E-030
   1.0111111111111113          6.9865621469371298E-030
   1.0211111111111113          2.6963946075207038E-029
   1.0311111111111111          3.4902460787101091E-029
   1.0411111111111111          1.6865872574976657E-029
   1.0511111111111111         -2.5612144875038252E-029
   1.0611111111111111         -6.8939835972900968E-029
   1.0711111111111111         -7.7221142140771644E-029
   1.0811111111111111         -2.6631732187596854E-029
   1.0911111111111111          7.0680214604208646E-029
   1.1011111111111112          1.6198339538647519E-028
   1.1111111111111112          1.7612729249037137E-028
   1.1211111111111114          6.2731841538411762E-029
   1.1311111111111112         -1.6865878894434287E-028
   1.1411111111111114         -4.2142654967872206E-028
   1.1511111111111112         -5.1008244947446220E-028
   1.1611111111111110         -2.1937914106887722E-028
   1.1711111111111112          5.2942114538029192E-028
   1.1811111111111110          1.4343035852733393E-027
   1.1911111111111112          1.7013287646447742E-027
   1.2011111111111110          4.0932207997824828E-028
   1.2111111111111112         -2.5246048824140192E-027
   1.2211111111111110         -5.3472759274851402E-027
   1.2311111111111113         -4.7213032436126010E-027
   1.2411111111111111          1.7678964146495801E-027
   1.2511111111111113          1.1791446765868564E-026
   1.2611111111111111          1.6746101074146967E-026
   1.2711111111111113          6.6076976981014556E-027
   1.2811111111111111         -1.9132030911659339E-026
   1.2911111111111113         -4.2764556428435305E-026
   1.3011111111111111         -3.4701276315476953E-026
   1.3111111111111113          2.0260632022046081E-026
   1.3211111111111111          9.2685209091800619E-026
   1.3311111111111114          1.0845187001863770E-025
   1.3411111111111111          3.6920982220977173E-027
   1.3511111111111114         -1.8842472737124562E-025
   1.3611111111111112         -3.0014121196447897E-025
   1.3711111111111114         -1.2641120064641570E-025
   1.3811111111111112          3.5387368366270297E-025
   1.3911111111111114          8.0266631618902555E-025
   1.4011111111111112          6.4128711795950668E-025
   1.4111111111111114         -4.4810622493116714E-025
   1.4211111111111112         -1.9341098403286988E-024
   1.4311111111111110         -2.3848395208077916E-024
   1.4411111111111112         -4.2456651691175900E-025
   1.4511111111111110          3.6398487873308935E-024
   1.4611111111111112          6.8728693840648276E-024
   1.4711111111111110          5.0108326370502887E-024
   1.4811111111111113         -3.8031485167379794E-024
   1.4911111111111111         -1.5211134674277259E-023
   1.5011111111111113         -1.8847912820534580E-023
   1.5111111111111111         -5.1417894637737658E-024
   1.5211111111111113          2.3983559818869842E-023
   1.5311111111111111          4.9101324914604729E-023
   1.5411111111111113          4.1344771177928609E-023
   1.5511111111111111         -1.4443206982037192E-023
   1.5611111111111113         -9.5104673147548952E-023
   1.5711111111111111         -1.3677946901834220E-022
   1.5811111111111114         -7.1162725741429518E-023
   1.5911111111111111          1.1075826728179019E-022
   1.6011111111111114          3.1173251046372989E-022
   1.6111111111111112          3.5260557753021617E-022
   1.6211111111111114          8.7945249250801687E-023
   1.6311111111111112         -4.3928828961209145E-022
   1.6411111111111114         -9.2072623780548299E-022
   1.6511111111111112         -8.9564737775187180E-022
   1.6611111111111114         -6.2308576184777849E-023
   1.6711111111111112          1.3690460129057198E-021
   1.6811111111111110          2.5550052099662736E-021
   1.6911111111111112          2.3535463411312640E-021
   1.7011111111111110          8.4477340980803217E-023
   1.7111111111111112         -3.6657853821576387E-021
   1.7211111111111110         -6.7996063887384504E-021
   1.7311111111111113         -6.4975113856429184E-021
   1.7411111111111111         -9.7254760876383133E-022
   1.7511111111111113          8.6217164493372786E-021
   1.7611111111111111          1.7443730160360298E-020
   1.7711111111111113          1.8500458239658192E-020
   1.7811111111111111          6.5323874689990421E-021
   1.7911111111111113         -1.7286680550661729E-020
   1.8011111111111111         -4.2682929966868237E-020
   1.8111111111111113         -5.2525209571164328E-020
   1.8211111111111111         -3.0972908851170087E-020
   1.8311111111111114          2.4938400100397005E-020
   1.8411111111111111          9.6281516242745223E-020
   1.8511111111111114          1.4313826710241106E-019
   1.8611111111111112          1.1994297242838483E-019
   1.8711111111111114          2.6179414165090198E-021
   1.8811111111111112         -1.8414622418351904E-019
   1.8911111111111114         -3.5699962354809929E-019
   1.9011111111111112         -3.9648731313621430E-019
   1.9111111111111114         -2.0391926586826025E-019
   1.9211111111111112          2.2610912250772827E-019
   1.9311111111111110          7.5466406639476483E-019
   1.9411111111111112          1.1101793660324260E-018
   1.9511111111111110          9.8544921505586123E-019
   1.9611111111111112          2.0218669730117672E-019
   1.9711111111111110         -1.1217347689970621E-018
   1.9811111111111113         -2.4970982098490615E-018
   1.9911111111111111         -3.1638041292055767E-018
   2.0011111111111113         -2.3884958060705963E-018
   2.0111111111111111          1.1811932352104097E-019
   2.0211111111111113          3.8386151777941928E-018
   2.0311111111111111          7.3579287129755662E-018
   2.0411111111111113          8.7069403508607342E-018
   2.0511111111111111          6.1433302023175088E-018
   2.0611111111111113         -8.5082820700105848E-019
   2.0711111111111111         -1.0772417785031157E-017
   2.0811111111111114         -1.9981771923524962E-017
   2.0911111111111111         -2.3596215365052996E-017
   2.1011111111111114         -1.7351443454724741E-017
   2.1111111111111112          9.2999683624789621E-020
   2.1211111111111114          2.5332004249658772E-017
   2.1311111111111112          4.9911082235992176E-017
   2.1411111111111114          6.2236440631224262E-017
   2.1511111111111112          5.1624547170226370E-017
   2.1611111111111114          1.3428912458148268E-017
   2.1711111111111112         -4.6649859805275310E-017
   2.1811111111111114         -1.1122732414042060E-016
   2.1911111111111112         -1.5444200543215914E-016
   2.2011111111111110         -1.4984458852714862E-016
   2.2111111111111112         -8.1195069546359934E-017
   2.2211111111111110          4.7347709074694447E-017
   2.2311111111111113          2.0596756224412006E-016
   2.2411111111111111          3.4248734312911327E-016
   2.2511111111111113          3.9550771456963103E-016
   2.2611111111111111          3.1519932970036873E-016
   2.2711111111111113          8.6000598476043900E-017
   2.2811111111111111         -2.5681808673667852E-016
   2.2911111111111113         -6.2461437728305626E-016
   2.3011111111111111         -8.9163600819081729E-016
   2.3111111111111113         -9.2925104731248626E-016
   2.3211111111111111         -6.5068329854246505E-016
   2.3311111111111114         -5.3287286080576363E-017
   2.3411111111111111          7.5683674974504457E-016
   2.3511111111111114          1.5706191010175221E-015
   2.3611111111111112          2.1176552129692147E-015
   2.3711111111111114          2.1385741739093174E-015
   2.3811111111111112          1.4719099047510054E-015
   2.3911111111111114          1.3112009143003485E-016
   2.4011111111111112         -1.6547066027902983E-015
   2.4111111111111114         -3.4571706916908208E-015
   2.4211111111111112         -4.7294491185758541E-015
   2.4311111111111114         -4.9413750679129856E-015
   2.4411111111111112         -3.7402971717829647E-015
   2.4511111111111110         -1.0963093437962022E-015
   2.4611111111111112          2.6128137332751336E-015
   2.4711111111111110          6.6129386851448285E-015
   2.4811111111111113          9.8570257452178581E-015
   2.4911111111111111          1.1249081195349991E-014
   2.5011111111111113          9.9282637571807865E-015
   2.5111111111111111          5.5502507260031097E-015
   2.5211111111111113         -1.5068511784955478E-015
   2.5311111111111111         -1.0077979371706826E-014
   2.5411111111111113         -1.8330018289347029E-014
   2.5511111111111111         -2.4069068000611912E-014
   2.5611111111111113         -2.5197944384801503E-014
   2.5711111111111111         -2.0245571441101368E-014
   2.5811111111111114         -8.8616121073623912E-015
   2.5911111111111111          7.8404334213173429E-015
   2.6011111111111114          2.7196615185604012E-014
   2.6111111111111112          4.5234493505508927E-014
   2.6211111111111114          5.7263845358243581E-014
   2.6311111111111112          5.8770893154262011E-014
   2.6411111111111114          4.6499591422341849E-014
   2.6511111111111112          1.9535695150864167E-014
   2.6611111111111114         -1.9841931442614487E-014
   2.6711111111111112         -6.5796990794154964E-014
   2.6811111111111114         -1.0928346579454698E-013
   2.6911111111111112         -1.3924027675218248E-013
   2.7011111111111110         -1.4461462626361166E-013
   2.7111111111111112         -1.1699223133234543E-013
   2.7211111111111110         -5.3389591196401770E-014
   2.7311111111111113          4.1423600796253526E-014
   2.7411111111111111          1.5379505394902404E-013
   2.7511111111111113          2.6190456595999445E-013
   2.7611111111111111          3.3870427079349397E-013
   2.7711111111111113          3.5700701292787351E-013
   2.7811111111111111          2.9606224698393302E-013
   2.7911111111111113          1.4838020948645253E-013
   2.8011111111111111         -7.4840707361880504E-014
   2.8111111111111113         -3.4141561648139140E-013
   2.8211111111111111         -6.0038806608611606E-013
   2.8311111111111114         -7.8934921749970743E-013
   2.8411111111111111         -8.4632751111077265E-013
   2.8511111111111114         -7.2446676479057115E-013
   2.8611111111111112         -4.0662913032389614E-013
   2.8711111111111114          8.3557035531096890E-014
   2.8811111111111112          6.7757182243416425E-013
   2.8911111111111114          1.2672624451551262E-012
   2.9011111111111112          1.7202709525973581E-012
   2.9111111111111114          1.9042402203683917E-012
   2.9211111111111112          1.7161577063953826E-012
   2.9311111111111114          1.1113489685812827E-012
   2.9411111111111112          1.2569506796077795E-013
   2.9511111111111110         -1.1150815514004986E-012
   2.9611111111111112         -2.4035376553627197E-012
   2.9711111111111110         -3.4776012364928777E-012
   2.9811111111111113         -4.0644930997257855E-012
   2.9911111111111111         -3.9354847505834734E-012
   3.0011111111111113         -2.9622192285888582E-012
   3.0111111111111111         -1.1634242831279340E-012
   3.0211111111111113          1.2692026249427890E-012
   3.0311111111111111          3.9749805010036443E-012
   3.0411111111111113          6.4629391248460788E-012
   3.0511111111111111          8.1841929067127950E-012
   3.0611111111111113          8.6302033228125019E-012
   3.0711111111111111          7.4426211721378976E-012
   3.0811111111111114          4.5153377564721708E-012
   3.0911111111111111          6.7070914794298275E-014
   3.1011111111111114         -5.3357578772006420E-012
   3.1111111111111112         -1.0820376712683544E-011
   3.1211111111111109         -1.5318151261323187E-011
   3.1311111111111116         -1.7736539667523310E-011
   3.1411111111111114         -1.7171087468570434E-011
   3.1511111111111112         -1.3123637593315252E-011
   3.1611111111111110         -5.6843470902512294E-012
   3.1711111111111117          4.3669972152327041E-012
   3.1811111111111114          1.5578002429683657E-011
   3.1911111111111112          2.5980211038056922E-011
   3.2011111111111110          3.3381339359372930E-011
   3.2111111111111108          3.5759763206133499E-011
   3.2211111111111115          3.1699323721490202E-011
   3.2311111111111113          2.0782557966225745E-011
   3.2411111111111111          3.8550993994301841E-012
   3.2511111111111108         -1.6914310230209395E-011
   3.2611111111111115         -3.8224583220891617E-011
   3.2711111111111113         -5.6088134137155521E-011
   3.2811111111111111         -6.6487003402837530E-011
   3.2911111111111109         -6.6147129440530250E-011
   3.3011111111111116         -5.3299666763484410E-011
   3.3111111111111113         -2.8277952895949809E-011
   3.3211111111111111          6.1952491747785388E-012
   3.3311111111111109          4.5139218751710786E-011
   3.3411111111111116          8.1911075144880385E-011
   3.3511111111111114          1.0922547588609888E-010
   3.3611111111111112          1.2046549868749423E-010
   3.3711111111111109          1.1107381681085826E-010
   3.3811111111111116          7.9761204585526713E-011
   3.3911111111111114          2.9260101286343598E-011
   3.4011111111111112         -3.3606416260933969E-011
   3.4111111111111110         -9.8670925596788805E-011
   3.4211111111111117         -1.5396796337885377E-010
   3.4311111111111114         -1.8788853806128714E-010
   3.4411111111111112         -1.9157804509450926E-010
   3.4511111111111110         -1.6108796241365297E-010
   3.4611111111111117         -9.8760874478465155E-011
   3.4711111111111115         -1.3419207585407822E-011
   3.4811111111111113          8.0857549822344055E-011
   3.4911111111111111          1.6727380591774477E-010
   3.5011111111111108          2.2973981050888881E-010
   3.5111111111111115          2.5644322776408046E-010
   3.5211111111111113          2.4267601816951867E-010
   3.5311111111111111          1.9206754242606650E-010
   3.5411111111111109          1.1566846785937557E-010
   3.5511111111111116          2.8857135431215042E-011
   3.5611111111111113         -5.3295166890787726E-011
   3.5711111111111111         -1.2093434587079344E-010
   3.5811111111111109         -1.7294751741836478E-010
   3.5911111111111116         -2.1747817435802119E-010
   3.6011111111111114         -2.6839677702561460E-010
   3.6111111111111112         -3.3779459784888388E-010
   3.6211111111111109         -4.2601411287535029E-010
   3.6311111111111116         -5.1218851382373032E-010
   3.6411111111111114         -5.4930104909090005E-010
   3.6511111111111112         -4.6790932239915151E-010
   3.6611111111111110         -1.9149409835605979E-010
   3.6711111111111117          3.3630148665864112E-010
   3.6811111111111114          1.1163079349785221E-009
   3.6911111111111112          2.0587871407684588E-009
   3.7011111111111110          2.9611970653320441E-009
   3.7111111111111117          3.5130820474904567E-009
   3.7211111111111115          3.3403959598388155E-009
   3.7311111111111113          2.0944808110101576E-009
   3.7411111111111111         -4.2113523779363504E-010
   3.7511111111111108         -4.1085721491640470E-009
   3.7611111111111115         -8.4563813729232606E-009
   3.7711111111111113         -1.2493003076485820E-008
   3.7811111111111111         -1.4864012243265279E-008
   3.7911111111111109         -1.4070813847411046E-008
   3.8011111111111116         -8.8783496110522719E-009
   3.8111111111111113          1.1461827043035555E-009
   3.8211111111111111          1.5054677504622305E-008
   3.8311111111111109          3.0039839060691520E-008
   3.8411111111111116          4.1225376889997278E-008
   3.8511111111111114          4.1884430146410523E-008
   3.8611111111111112          2.4186807223713913E-008
   3.8711111111111109         -1.9538193285484340E-008
   3.8811111111111116         -9.5197734140128887E-008
   3.8911111111111114         -2.0535190969894757E-007
   3.9011111111111112         -3.4818475569409202E-007
   3.9111111111111110         -5.1767841569017037E-007
   3.9211111111111117         -7.0563680765189929E-007
   3.9311111111111114         -9.0605539071475505E-007
   3.9411111111111112         -1.1220033684367081E-006
   3.9511111111111110         -1.3747077218795312E-006
   3.9611111111111117         -1.7139719830083777E-006
   3.9711111111111115         -2.2285107661446091E-006
   3.9811111111111113         -3.0544306355295703E-006
   3.9911111111111111         -4.3800300773000345E-006
   4.0011111111111113         -6.4455725805601105E-006
   4.0111111111111111         -9.5375607997993939E-006
   4.0211111111111109         -1.3978615243104286E-005
   4.0311111111111106         -2.0115869119763374E-005
   4.0411111111111104         -2.8312631911830977E-005
   4.0511111111111120         -3.8949867303017527E-005
   4.0611111111111118         -5.2444862376432866E-005
   4.0711111111111116         -6.9293913838919252E-005
   4.0811111111111114         -9.0144545538350940E-005
   4.0911111111111111         -1.1589846690185368E-004
   4.1011111111111109         -1.4784214727114886E-004
   4.1111111111111107         -1.8779531819745898E-004
   4.1211111111111105         -2.3826163669582456E-004
   4.1311111111111121         -3.0255963793024421E-004
   4.1411111111111119         -3.8490942097268999E-004
   4.1511111111111116         -4.9045175546780229E-004
   4.1611111111111114         -6.2517530750483274E-004
   4.1711111111111112         -7.9574307892471552E-004
   4.1811111111111110         -1.0092182783409953E-003
   4.1911111111111108         -1.2727068969979882E-003
   4.2011111111111106         -1.5929518267512321E-003
   4.2111111111111121         -1.9759335555136204E-003
   4.2211111111111119         -2.4265435058623552E-003
   4.2311111111111117         -2.9484033584594727E-003
   4.2411111111111115         -3.5439028870314360E-003
   4.2511111111111113         -4.2145219631493092E-003
   4.2611111111111111         -4.9614631570875645E-003
   4.2711111111111109         -5.7866089046001434E-003
   4.2811111111111106         -6.6937454976141453E-003
   4.2911111111111104         -7.6899798586964607E-003
   4.3011111111111120         -8.7872035801410675E-003
   4.3111111111111118         -1.0003412142395973E-002
   4.3211111111111116         -1.1363669298589230E-002
   4.3311111111111114         -1.2900481931865215E-002
   4.3411111111111111         -1.4653386548161507E-002
   4.3511111111111109         -1.6667485237121582E-002
   4.3611111111111107         -1.8990818411111832E-002
   4.3711111111111105         -2.1670591086149216E-002
   4.3811111111111121         -2.4748152121901512E-002
   4.3911111111111119         -2.8253005817532539E-002
   4.4011111111111116         -3.2196089625358582E-002
   4.4111111111111114         -3.6562759429216385E-002
   4.4211111111111112         -4.1306003928184509E-002
   4.4311111111111110         -4.6340409666299820E-002
   4.4411111111111108         -5.1537770777940750E-002
   4.4511111111111106         -5.6724630296230316E-002
   4.4611111111111121         -6.1682492494583130E-002
   4.4711111111111119         -6.6151425242424011E-002
   4.4811111111111117         -6.9836892187595367E-002
   4.4911111111111115         -7.2420030832290649E-002
   4.5011111111111113         -7.3571272194385529E-002
   4.5111111111111111         -7.2966955602169037E-002
   4.5211111111111109         -7.0307657122612000E-002
   4.5311111111111106         -6.5337732434272766E-002
   4.5411111111111104         -5.7864706963300705E-002
   4.5511111111111120         -4.7777384519577026E-002