 -0.88888888888888884          0.0000000000000000     
 -0.87888888888888883          0.0000000000000000     
 -0.86888888888888882          0.0000000000000000     
 -0.85888888888888881          0.0000000000000000     
 -0.84888888888888880          0.0000000000000000     
 -0.83888888888888880          0.0000000000000000     
 -0.82888888888888879          0.0000000000000000     
 -0.81888888888888878          0.0000000000000000     
 -0.80888888888888888          0.0000000000000000     
 -0.79888888888888887          4.1012096428071929E-038
 -0.78888888888888886          5.0049902595790484E-038
 -0.77888888888888885          1.4216132114763988E-036
 -0.76888888888888884          3.0603992553799000E-036
 -0.75888888888888884         -5.7151937688789778E-036
 -0.74888888888888883         -6.4342545830914361E-036
 -0.73888888888888882          1.2420149081755792E-036
 -0.72888888888888881         -1.7806414828961157E-035
 -0.71888888888888880          1.2777989787479195E-034
 -0.70888888888888890         -5.8089330866188055E-034
 -0.69888888888888889         -1.9818463739459289E-033
 -0.68888888888888888          1.0420490729758736E-032
 -0.67888888888888888          2.2584693616479929E-032
 -0.66888888888888887         -9.6011416329400371E-032
 -0.65888888888888886         -2.1681840486651486E-031
 -0.64888888888888885          6.2767241785885645E-031
 -0.63888888888888884          1.8095332460851975E-030
 -0.62888888888888883         -2.8383503522073606E-030
 -0.61888888888888882         -1.2602345160589414E-029
 -0.60888888888888881          5.5748299189442121E-030
 -0.59888888888888880          6.9203525874942962E-029
 -0.58888888888888880          3.7511319471236964E-029
 -0.57888888888888879         -2.7559963615096556E-028
 -0.56888888888888878         -4.5001389821523955E-028
 -0.55888888888888877          6.1708090606054637E-028
 -0.54888888888888876          2.4502470383771613E-027
 -0.53888888888888875          7.0448687732237920E-028
 -0.52888888888888885         -7.7512224544412657E-027
 -0.51888888888888884         -1.2540896981451591E-026
 -0.50888888888888884          8.5119663232181794E-027
 -0.49888888888888883          5.1890543114291156E-026
 -0.48888888888888882          4.7488671529766711E-026
 -0.47888888888888881         -8.9107644767937644E-026
 -0.46888888888888886         -2.7413399633734608E-025
 -0.45888888888888885         -1.4944905754463519E-025
 -0.44888888888888884          5.6747862926147370E-025
 -0.43888888888888883          1.2979596859763782E-024
 -0.42888888888888882          4.1193463514787466E-025
 -0.41888888888888881         -2.9658842896639642E-024
 -0.40888888888888886         -5.8145746143873896E-024
 -0.39888888888888885         -1.2235143893126056E-024
 -0.38888888888888884          1.3622599158546466E-023
 -0.37888888888888883          2.5401953814562567E-023
 -0.36888888888888882          6.0410628911635839E-024
 -0.35888888888888881         -5.5678156100184552E-023
 -0.34888888888888880         -1.0830893621261309E-022
 -0.33888888888888880         -4.1620500152408699E-023
 -0.32888888888888879          1.9878800038009743E-022
 -0.31888888888888878          4.3868850288863381E-022
 -0.30888888888888888          2.6503800332639809E-022
 -0.29888888888888887         -5.9439343922082468E-022
 -0.28888888888888886         -1.6364726365660292E-021
 -0.27888888888888885         -1.4088639753560293E-021
 -0.26888888888888884          1.3592509100613205E-021
 -0.25888888888888884          5.5269167188013756E-021
 -0.24888888888888883          6.3644540526762220E-021
 -0.23888888888888882         -1.5238012869257694E-021
 -0.22888888888888881         -1.6810012875916645E-020
 -0.21888888888888880         -2.5451769068062728E-020
 -0.20888888888888879         -6.5364300719048249E-021
 -0.19888888888888878          4.5077556447898164E-020
 -0.18888888888888877          9.2913437121233897E-020
 -0.17888888888888888          6.2981842032517235E-020
 -0.16888888888888887         -9.4462707634454504E-020
 -0.15888888888888886         -3.0723974661935935E-019
 -0.14888888888888885         -3.4198520975570786E-019
 -0.13888888888888884          5.9422684189506159E-020
 -0.12888888888888883          8.5901672637866233E-019
 -0.11888888888888882          1.4420411258614036E-018
 -0.10888888888888881          7.8522166918612221E-019
  -9.8888888888888804E-002    -1.6664639114434718E-018
  -8.8888888888888795E-002    -4.7836136065349858E-018
  -7.8888888888888786E-002    -5.3661435588065736E-018
  -6.8888888888888777E-002     8.7851802630748280E-020
  -5.8888888888888768E-002     1.1433286290804886E-017
  -4.8888888888888871E-002     2.1309669776274714E-017
  -3.8888888888888862E-002     1.6530769444870055E-017
  -2.8888888888888853E-002    -1.2417554291946021E-017
  -1.8888888888888844E-002    -5.6969338302290806E-017
  -8.8888888888888351E-003    -8.2796319158695184E-017
   1.1111111111111738E-003    -4.3410087822203170E-017
   1.1111111111111183E-002     8.0872839684378677E-017
   2.1111111111111192E-002     2.3815927439764636E-016
   3.1111111111111200E-002     2.9621658019857102E-016
   4.1111111111111209E-002     1.0811242003389701E-016
   5.1111111111111218E-002    -3.5438235915630342E-016
   6.1111111111111227E-002    -8.7807855765574257E-016
   7.1111111111111125E-002    -1.0215167580701211E-015
   8.1111111111111134E-002    -3.4876197791391592E-016
   9.1111111111111143E-002     1.1771341805352732E-015
  0.10111111111111115          2.8835970375016510E-015
  0.11111111111111116          3.4783945844919350E-015
  0.12111111111111117          1.7012084998363226E-015
  0.13111111111111118         -2.6737611419618695E-015
  0.14111111111111119         -8.0753207397886440E-015
  0.15111111111111120         -1.1289599863414847E-014
  0.16111111111111120         -8.8181923514531885E-015
  0.17111111111111121          1.0012905642017541E-015
  0.18111111111111122          1.6183506357930755E-014
  0.19111111111111123          3.0733326717964984E-014
  0.20111111111111124          3.6262202144027658E-014
  0.21111111111111125          2.5180622561030153E-014
  0.22111111111111126         -5.5992464998040874E-015
  0.23111111111111127         -5.1604892776536959E-014
  0.24111111111111128         -9.9313318799223310E-014
  0.25111111111111128         -1.2713872381102387E-013
  0.26111111111111129         -1.1009497756812522E-013
  0.27111111111111108         -2.9120955457153166E-014
  0.28111111111111109          1.1581799972196216E-013
  0.29111111111111110          2.9343319224092723E-013
  0.30111111111111111          4.3775215657210209E-013
  0.31111111111111112          4.6174045489899562E-013
  0.32111111111111112          2.8976484840043115E-013
  0.33111111111111113         -1.0007762712071697E-013
  0.34111111111111114         -6.4232955976697981E-013
  0.35111111111111115         -1.1790936066055635E-012
  0.36111111111111116         -1.4934933715085585E-012
  0.37111111111111117         -1.3751871820108508E-012
  0.38111111111111118         -6.9783057370792489E-013
  0.39111111111111119          5.1508423177734630E-013
  0.40111111111111120          2.0538447245005420E-012
  0.41111111111111120          3.5265594697936331E-012
  0.42111111111111121          4.4132258611440101E-012
  0.43111111111111122          4.1799363449668281E-012
  0.44111111111111123          2.4527487246100987E-012
  0.45111111111111124         -7.8025108075918670E-013
  0.46111111111111125         -5.0119288060035405E-012
  0.47111111111111126         -9.1995890072471553E-012
  0.48111111111111127         -1.1955955322995315E-011
  0.49111111111111128         -1.1932594669306074E-011
  0.50111111111111128         -8.2839525170075312E-012
  0.51111111111111129         -1.0484116829898027E-012
  0.52111111111111108          8.6882992120229652E-012
  0.53111111111111109          1.8893680023279735E-011
  0.54111111111111110          2.6917218454158842E-011
  0.55111111111111111          2.9988799638003272E-011
  0.56111111111111112          2.5852864987685464E-011
  0.57111111111111112          1.3502807379162096E-011
  0.58111111111111113         -6.1101098139393351E-012
  0.59111111111111114         -2.9666644141279619E-011
  0.60111111111111115         -5.1712596010888845E-011
  0.61111111111111116         -6.5736152632389633E-011
  0.62111111111111117         -6.5932016790615222E-011
  0.63111111111111118         -4.9108057897928603E-011
  0.64111111111111119         -1.6040974104569727E-011
  0.65111111111111120          2.8196230072996542E-011
  0.66111111111111120          7.4970051000544657E-011
  0.67111111111111121          1.1357611379159138E-010
  0.68111111111111122          1.3315469560293280E-010
  0.69111111111111123          1.2491795098323877E-010
  0.70111111111111124          8.4659744492565636E-011
  0.71111111111111125          1.5190421837063539E-011
  0.72111111111111126         -7.2256853278496180E-011
  0.73111111111111127         -1.5889038695870994E-010
  0.74111111111111128         -2.2217164219462404E-010
  0.75111111111111128         -2.4188431813065847E-010
  0.76111111111111129         -2.0640217313072640E-010
  0.77111111111111130         -1.1674861077892729E-010
  0.78111111111111109          1.2914355349002982E-011
  0.79111111111111110          1.5800062647119972E-010
  0.80111111111111111          2.8795085760258132E-010
  0.81111111111111112          3.7126335339365824E-010
  0.82111111111111112          3.8111799827156290E-010
  0.83111111111111113          3.0211838586424733E-010
  0.84111111111111114          1.3747912530615025E-010
  0.85111111111111115         -8.6261629783646043E-011
  0.86111111111111116         -3.2103625313695261E-010
  0.87111111111111117         -5.0767917647576155E-010
  0.88111111111111118         -5.9262256213443720E-010
  0.89111111111111119         -5.4434456941976350E-010
  0.90111111111111120         -3.6264677372166432E-010
  0.91111111111111120         -7.7936282427693016E-011
  0.92111111111111121          2.5667520886507589E-010
  0.93111111111111122          5.7502091976857628E-010
  0.94111111111111123          8.0637113653025949E-010
  0.95111111111111124          8.8489865435192883E-010
  0.96111111111111125          7.6425654693679235E-010
  0.97111111111111126          4.3702053087457671E-010
  0.98111111111111127         -4.9306572713625485E-011
  0.99111111111111128         -5.9229504634217278E-010
   1.0011111111111113         -1.0577106968057137E-009
   1.0111111111111113         -1.3195220471828861E-009
   1.0211111111111113         -1.2988253805801264E-009
   1.0311111111111111         -9.8355668054495027E-010
   1.0411111111111111         -4.2356496088302720E-010
   1.0511111111111111          2.8859376000056614E-010
   1.0611111111111111          1.0353229384918450E-009
   1.0711111111111111          1.6841508188036869E-009
   1.0811111111111111          2.1003612182823872E-009
   1.0911111111111111          2.1776456193833837E-009
   1.1011111111111112          1.8890262687421000E-009
   1.1111111111111112          1.3371639351333897E-009
   1.1211111111111114          7.7153733402113289E-010
   1.1311111111111112          5.5491439221455607E-010
   1.1411111111111114          1.0959344542982308E-009
   1.1511111111111112          2.7926687629076241E-009
   1.1611111111111110          6.0295328729864650E-009
   1.1711111111111112          1.1236854113860772E-008
   1.1811111111111110          1.8986046512736721E-008
   1.1911111111111112          3.0086518165717280E-008
   1.2011111111111110          4.5681510130179959E-008
   1.2111111111111112          6.7381840551661298E-008
   1.2211111111111110          9.7492957706890593E-008
   1.2311111111111113          1.3936551113147289E-007
   1.2411111111111111          1.9785834126651025E-007
   1.2511111111111113          2.7988369311060524E-007
   1.2611111111111111          3.9503223092651751E-007
   1.2711111111111113          5.5632511930525652E-007
   1.2811111111111111          7.8115937185430084E-007
   1.2911111111111113          1.0925098195002647E-006
   1.3011111111111111          1.5204442433969234E-006
   1.3111111111111113          2.1040812043793267E-006
   1.3211111111111111          2.8942179142177338E-006
   1.3311111111111114          3.9569081309309695E-006
   1.3411111111111111          5.3781163842359092E-006
   1.3511111111111114          7.2692628236836754E-006
   1.3611111111111112          9.7731899586506188E-006
   1.3711111111111114          1.3070289242023136E-005
   1.3811111111111112          1.7385265891789459E-005
   1.3911111111111114          2.2995902327238582E-005
   1.4011111111111112          3.0245648304116912E-005
   1.4111111111111114          3.9560727600473911E-005
   1.4211111111111112          5.1470207836246118E-005
   1.4311111111111110          6.6625150793697685E-005
   1.4411111111111112          8.5812876932322979E-005
   1.4511111111111110          1.0996533092111349E-004
   1.4611111111111112          1.4016612840350717E-004
   1.4711111111111110          1.7766538076102734E-004
   1.4811111111111113          2.2391050879377872E-004
   1.4911111111111111          2.8059250325895846E-004
   1.5011111111111113          3.4969425178132951E-004
   1.5111111111111111          4.3351724161766469E-004
   1.5211111111111113          5.3466530516743660E-004
   1.5311111111111111          6.5598235232755542E-004
   1.5411111111111113          8.0046738730743527E-004
   1.5511111111111111          9.7121065482497215E-004
   1.5611111111111113          1.1713901767507195E-003
   1.5711111111111111          1.4043345581740141E-003
   1.5811111111111114          1.6736029647290707E-003
   1.5911111111111111          1.9829967059195042E-003
   1.6011111111111114          2.3364182561635971E-003
   1.6111111111111112          2.7375482022762299E-003
   1.6211111111111114          3.1894077546894550E-003
   1.6311111111111112          3.6939370911568403E-003
   1.6411111111111114          4.2517422698438168E-003
   1.6511111111111112          4.8620710149407387E-003
   1.6611111111111114          5.5229598656296730E-003
   1.6711111111111112          6.2313806265592575E-003
   1.6811111111111110          6.9832042790949345E-003
   1.6911111111111112          7.7728852629661560E-003
   1.7011111111111110          8.5929529741406441E-003
   1.7111111111111112          9.4335228204727173E-003
   1.7211111111111110          1.0282044298946857E-002
   1.7311111111111113          1.1123395524919033E-002
   1.7411111111111111          1.1940223164856434E-002
   1.7511111111111113          1.2713312171399593E-002
   1.7611111111111111          1.3421774841845036E-002
   1.7711111111111113          1.4043025672435760E-002
   1.7811111111111111          1.4552723616361618E-002
   1.7911111111111113          1.4924962073564529E-002
   1.8011111111111111          1.5132902190089226E-002
   1.8111111111111113          1.5149820595979691E-002
   1.8211111111111111          1.4950347132980824E-002
   1.8311111111111114          1.4511576853692532E-002
   1.8411111111111111          1.3813896104693413E-002
   1.8511111111111114          1.2841618619859219E-002
   1.8611111111111112          1.1583670042455196E-002
   1.8711111111111114          1.0034522041678429E-002
   1.8811111111111112          8.1952894106507301E-003
   1.8911111111111114          6.0747093521058559E-003
   1.9011111111111112          3.6896336823701859E-003
   1.9111111111111114          1.0648540919646621E-003
   1.9211111111111112         -1.7675404669716954E-003
   1.9311111111111110         -4.7688586637377739E-003
   1.9411111111111112         -7.8942663967609406E-003
   1.9511111111111110         -1.1093053966760635E-002
   1.9611111111111112         -1.4309122227132320E-002
   1.9711111111111110         -1.7482170835137367E-002
   1.9811111111111113         -2.0549777895212173E-002
   1.9911111111111111         -2.3450005799531937E-002
   2.0011111111111113         -2.6123818010091782E-002
   2.0111111111111111         -2.8516648337244987E-002
   2.0211111111111113         -3.0579105019569397E-002
   2.0311111111111111         -3.2267298549413681E-002
   2.0411111111111113         -3.3543571829795837E-002
   2.0511111111111111         -3.4378007054328918E-002
   2.0611111111111113         -3.4750495105981827E-002
   2.0711111111111111         -3.4652393311262131E-002
   2.0811111111111114         -3.4086924046278000E-002
   2.0911111111111111         -3.3068228513002396E-002
   2.1011111111111114         -3.1619641929864883E-002
   2.1111111111111112         -2.9772225767374039E-002
   2.1211111111111114         -2.7564255520701408E-002
   2.1311111111111112         -2.5041462853550911E-002
   2.1411111111111114         -2.2256929427385330E-002
   2.1511111111111112         -1.9269663840532303E-002
   2.1611111111111114         -1.6141705214977264E-002
   2.1711111111111112         -1.2934660539031029E-002
   2.1811111111111114         -9.7070317715406418E-003
   2.1911111111111112         -6.5133059397339821E-003
   2.2011111111111110         -3.4045542124658823E-003
   2.2111111111111112         -4.2911671334877610E-004
   2.2211111111111110          2.3680289741605520E-003
   2.2311111111111113          4.9475422129034996E-003
   2.2411111111111111          7.2785932570695877E-003
   2.2511111111111113          9.3406317755579948E-003
   2.2611111111111111          1.1122813448309898E-002
   2.2711111111111113          1.2621365487575531E-002
   2.2811111111111111          1.3836679048836231E-002
   2.2911111111111113          1.4772065915167332E-002
   2.3011111111111111          1.5434782020747662E-002
   2.3111111111111113          1.5838200226426125E-002
   2.3211111111111111          1.6003042459487915E-002
   2.3311111111111114          1.5956090763211250E-002
   2.3411111111111111          1.5726575627923012E-002
   2.3511111111111114          1.5342269092798233E-002
   2.3611111111111112          1.4827619306743145E-002
   2.3711111111111114          1.4204813167452812E-002
   2.3811111111111112          1.3496492058038712E-002
   2.3911111111111114          1.2727699242532253E-002
   2.4011111111111112          1.1925129219889641E-002
   2.4111111111111114          1.1113781481981277E-002
   2.4211111111111112          1.0313198901712894E-002
   2.4311111111111114          9.5359543338418007E-003
   2.4411111111111112          8.7893875315785408E-003
   2.4511111111111110          8.0792130902409554E-003
   2.4611111111111112          7.4122659862041473E-003
   2.4711111111111110          6.7962850444018841E-003
   2.4811111111111113          6.2368726357817650E-003
   2.4911111111111111          5.7340702041983604E-003
   2.5011111111111113          5.2814581431448460E-003
   2.5111111111111111          4.8688012175261974E-003
   2.5211111111111113          4.4865668751299381E-003
   2.5311111111111111          4.1291904635727406E-003
   2.5411111111111113          3.7947995588183403E-003
   2.5511111111111111          3.4816821571439505E-003
   2.5611111111111113          3.1843255273997784E-003
   2.5711111111111111          2.8923091012984514E-003
   2.5811111111111114          2.5931911077350378E-003
   2.5911111111111111          2.2774522658437490E-003
   2.6011111111111114          1.9419724121689796E-003
   2.6111111111111112          1.5895130345597863E-003
   2.6211111111111114          1.2245785910636187E-003
   2.6311111111111112          8.4879738278687000E-004
   2.6411111111111114          4.5944127487018704E-004
   2.6511111111111112          5.2322764531709254E-005
   2.6611111111111114         -3.7307542515918612E-004
   2.6711111111111112         -8.1011344445869327E-004
   2.6811111111111114         -1.2458825949579477E-003
   2.6911111111111112         -1.6660410910844803E-003
   2.7011111111111110         -2.0602056756615639E-003
   2.7111111111111112         -2.4240124039351940E-003
   2.7211111111111110         -2.7564810588955879E-003
   2.7311111111111113         -3.0549217481166124E-003
   2.7411111111111111         -3.3114498946815729E-003
   2.7511111111111113         -3.5139417741447687E-003
   2.7611111111111111         -3.6509563215076923E-003
   2.7711111111111113         -3.7171235308051109E-003
   2.7811111111111111         -3.7150364369153976E-003
   2.7911111111111113         -3.6522918380796909E-003
   2.8011111111111111         -3.5360085312277079E-003
   2.8111111111111113         -3.3689909614622593E-003
   2.8211111111111111         -3.1503567006438971E-003
   2.8311111111111114         -2.8800650034099817E-003
   2.8411111111111111         -2.5638111401349306E-003
   2.8511111111111114         -2.2143751848489046E-003
   2.8611111111111112         -1.8481756560504436E-003
   2.8711111111111114         -1.4794634189456701E-003
   2.8811111111111112         -1.1163401650264859E-003
   2.8911111111111114         -7.6133868424221873E-004
   2.9011111111111112         -4.1588617023080587E-004
   2.9111111111111114         -8.5109313658904284E-005
   2.9211111111111112          2.2081538918428123E-004
   2.9311111111111114          4.8991193762049079E-004
   2.9411111111111112          7.1382208261638880E-004
   2.9511111111111110          8.9132238645106554E-004
   2.9611111111111112          1.0274002561345696E-003
   2.9711111111111110          1.1286925291642547E-003
   2.9811111111111113          1.1987420730292797E-003
   2.9911111111111111          1.2366204755380750E-003
   3.0011111111111113          1.2398564722388983E-003
   3.0111111111111111          1.2092348188161850E-003
   3.0211111111111113          1.1515941005200148E-003
   3.0311111111111111          1.0783670004457235E-003
   3.0411111111111113          1.0008551180362701E-003
   3.0511111111111111          9.2563469661399722E-004
   3.0611111111111113          8.5337948985397816E-004
   3.0711111111111111          7.8181456774473190E-004
   3.0811111111111114          7.1035622386261821E-004
   3.0911111111111111          6.4275111071765423E-004
   3.1011111111111114          5.8570381952449679E-004
   3.1111111111111112          5.4461683612316847E-004
   3.1211111111111109          5.1972910296171904E-004
   3.1311111111111116          5.0563830882310867E-004
   3.1411111111111114          4.9466633936390281E-004
   3.1511111111111112          4.8158547724597156E-004
   3.1611111111111110          4.6617144835181534E-004
   3.1711111111111117          4.5177171705290675E-004
   3.1811111111111114          4.4113036710768938E-004
   3.1911111111111112          4.3270332389511168E-004
   3.2011111111111110          4.2027968447655439E-004
   3.2111111111111108          3.9626285433769226E-004
   3.2211111111111115          3.5620067501440644E-004
   3.2311111111111113          3.0119530856609344E-004
   3.2411111111111111          2.3648615751881152E-004
   3.2511111111111108          1.6740844876039773E-004
   3.2611111111111115          9.5791641797404736E-005
   3.2711111111111113          1.9417539078858681E-005
   3.2811111111111111         -6.5151871240232140E-005
   3.2911111111111109         -1.5860225539654493E-004
   3.3011111111111116         -2.5684334104880691E-004
   3.3111111111111113         -3.5248711355961859E-004
   3.3211111111111111         -4.3868701322935522E-004
   3.3311111111111109         -5.1250250544399023E-004
   3.3411111111111116         -5.7541934074833989E-004
   3.3511111111111114         -6.3079077517613769E-004
   3.3611111111111112         -6.8024115171283484E-004
   3.3711111111111109         -7.2182348230853677E-004
   3.3811111111111116         -7.5130484765395522E-004
   3.3911111111111114         -7.6549826189875603E-004
   3.4011111111111112         -7.6505891047418118E-004
   3.4111111111111110         -7.5466348789632320E-004
   3.4211111111111117         -7.4046535883098841E-004
   3.4311111111111114         -7.2672823444008827E-004
   3.4411111111111112         -7.1413698606193066E-004
   3.4511111111111110         -7.0095196133479476E-004
   3.4611111111111117         -6.8594043841585517E-004
   3.4711111111111115         -6.7071267403662205E-004
   3.4811111111111113         -6.5965496469289064E-004
   3.4911111111111111         -6.5750820795074105E-004
   3.5011111111111108         -6.6641211742535233E-004
   3.5111111111111115         -6.8466417724266648E-004
   3.5211111111111113         -7.0814089849591255E-004
   3.5311111111111111         -7.3326466372236609E-004
   3.5411111111111109         -7.5924908742308617E-004
   3.5511111111111116         -7.8798353206366301E-004
   3.5611111111111113         -8.2170485984534025E-004
   3.5711111111111111         -8.6021563038229942E-004
   3.5811111111111109         -8.9973217109218240E-004
   3.5911111111111116         -9.3420688062906265E-004
   3.6011111111111114         -9.5806951867416501E-004
   3.6111111111111112         -9.6830393886193633E-004
   3.6211111111111109         -9.6440548077225685E-004
   3.6311111111111116         -9.4642199110239744E-004
   3.6411111111111114         -9.1269530821591616E-004
   3.6511111111111112         -8.5911975475028157E-004
   3.6611111111111110         -7.8057282371446490E-004
   3.6711111111111117         -6.7347887670621276E-004
   3.6811111111111114         -5.3761166054755449E-004
   3.6911111111111112         -3.7588956183753908E-004
   3.7011111111111110         -1.9244948634877801E-004
   3.7111111111111117          9.5116429292829707E-006
   3.7211111111111115          2.2855815768707544E-004
   3.7311111111111113          4.6399564598686993E-004
   3.7411111111111111          7.1394460974261165E-004
   3.7511111111111108          9.7409769659861922E-004
   3.7611111111111115          1.2381055857986212E-003
   3.7711111111111113          1.4992187498137355E-003
   3.7811111111111111          1.7519153188914061E-003
   3.7911111111111109          1.9923439249396324E-003
   3.8011111111111116          2.2173705510795116E-003
   3.8111111111111113          2.4231199640780687E-003
   3.8211111111111111          2.6042759418487549E-003
   3.8311111111111109          2.7547073550522327E-003
   3.8411111111111116          2.8689203318208456E-003
   3.8511111111111114          2.9432773590087891E-003
   3.8611111111111112          2.9762226622551680E-003
   3.8711111111111109          2.9675683472305536E-003
   3.8811111111111116          2.9176063835620880E-003
   3.8911111111111114          2.8268550522625446E-003
   3.9011111111111112          2.6965753640979528E-003
   3.9111111111111110          2.5294667575508356E-003
   3.9211111111111117          2.3298501037061214E-003
   3.9311111111111114          2.1031582728028297E-003
   3.9411111111111112          1.8551574321463704E-003
   3.9511111111111110          1.5915154945105314E-003
   3.9611111111111117          1.3179731322452426E-003
   3.9711111111111115          1.0407174704596400E-003
   3.9811111111111113          7.6627254020422697E-004
   3.9911111111111111          5.0067098345607519E-004
   4.0011111111111113          2.4843221763148904E-004
   4.0111111111111111          1.2202500329294708E-005
   4.0211111111111109         -2.0650631631724536E-004
   4.0311111111111106         -4.0591388824395835E-004
   4.0411111111111104         -5.8300141245126724E-004
   4.0511111111111120         -7.3387700831517577E-004
   4.0611111111111118         -8.5532228695228696E-004
   4.0711111111111116         -9.4630644889548421E-004
   4.0811111111111114         -1.0081626242026687E-003
   4.0911111111111111         -1.0431316914036870E-003
   4.1011111111111109         -1.0523194214329123E-003
   4.1111111111111107         -1.0347426868975163E-003
   4.1211111111111105         -9.8845141474157572E-004
   4.1311111111111121         -9.1307226102799177E-004
   4.1411111111111119         -8.1184017471969128E-004
   4.1511111111111116         -6.9141329731792212E-004
   4.1611111111111114         -5.5940722813829780E-004
   4.1711111111111112         -4.2137989657931030E-004
   4.1811111111111110         -2.7955009136348963E-004
   4.1911111111111108         -1.3430375838652253E-004
   4.2011111111111106          1.2669312127400190E-005
   4.2111111111111121          1.5621671627741307E-004
   4.2211111111111119          2.8854206902906299E-004
   4.2311111111111117          4.0270725730806589E-004
   4.2411111111111115          4.9632601439952850E-004
   4.2511111111111113          5.7257350999861956E-004
   4.2611111111111111          6.3749239780008793E-004
   4.2711111111111109          6.9541041739284992E-004
   4.2811111111111106          7.4590014992281795E-004
   4.2911111111111104          7.8467256389558315E-004
   4.3011111111111120          8.0779526615515351E-004
   4.3111111111111118          8.1597408279776573E-004
   4.3211111111111116          8.1539776874706149E-004
   4.3311111111111114          8.1411720020696521E-004
   4.3411111111111111          8.1639626296237111E-004
   4.3511111111111109          8.1926427083089948E-004
   4.3611111111111107          8.1405969103798270E-004
   4.3711111111111105          7.9204834764823318E-004
   4.3811111111111121          7.5007189298048615E-004
   4.3911111111111119          6.9202517624944448E-004
   4.4011111111111116          6.2498589977622032E-004
   4.4111111111111114          5.5288121802732348E-004
   4.4211111111111112          4.7259876737371087E-004
   4.4311111111111110          3.7572125438600779E-004
   4.4411111111111108          2.5479088071733713E-004
   4.4511111111111106          1.0948128328891471E-004
   4.4611111111111121         -5.2024399337824434E-005
   4.4711111111111119         -2.1766526333522052E-004
   4.4811111111111117         -3.7881665048189461E-004
   4.4911111111111115         -5.3478259360417724E-004
   4.5011111111111113         -6.9097889354452491E-004
   4.5111111111111111         -8.5211207624524832E-004
   4.5211111111111109         -1.0155488271266222E-003
   4.5311111111111106         -1.1700603645294905E-003
   4.5411111111111104         -1.3011929113417864E-003
   4.5511111111111120         -1.3995099579915404E-003